# Time         currentProc " (coordinates0 coordinates1 coordinates2 coordinates3) (position0 position1 position2) celli tetFacei tetPti facei stepFraction origProc origId active typeId nParticle d dTarget (U0 U1 U2) rho age tTurb (UTurb0 UTurb1 UTurb2) (UCorrect0 UCorrect1 UCorrect2)"
1.096000e+03	7 (0 0.387166 0.00188379 0.61095) (23.5 0.148628 0.473611) 188 35449 1 35449 0.234862 0 13318 1 -1 1 1.3e-06 0 (0.0731396 0.0165458 -0.0159882) 2650 581.235 0 (0 0 0) (0 0 0)
1.096000e+03	7 (0 0.277091 0.681931 0.0409783) (23.5 0.318722 0.753872) 554 35298 1 35298 0.501819 0 9274 1 -1 1.00001 8.9e-06 0 (0.235176 0.0100887 -0.0171018) 2650 585.502 0 (0 0 0) (0 0 0)
1.097000e+03	7 (0 0.197236 0.391694 0.41107) (23.5 0.0848552 0.816754) 551 35289 2 35289 0.467065 0 12313 1 -1 1 3.3e-06 0 (0.260808 2.32126e-05 -0.0385419) 2650 583.467 0 (0 0 0) (0 0 0)
1.098000e+03	7 (0 0.209312 0.683718 0.106969) (23.5 0.110917 0.536375) 598 35275 1 35275 0.833588 0 5129 1 -1 1.00002 5.3e-05 0 (0.159037 0.0202444 -0.0366517) 2650 591.834 0 (0 0 0) (0 0 0)
1.099000e+03	7 (0 0.0452541 0.833627 0.121119) (23.5 0.250884 0.996976) 529 35305 2 35305 0.165432 0 8067 1 -1 1 2.12e-05 0 (0.318812 -0.0105967 0.0119496) 2650 590.165 0 (0 0 0) (0 0 0)
1.099000e+03	7 (0 0.520268 0.158199 0.321533) (23.5 0.0700734 0.956994) 527 35293 2 35293 0.0313912 0 7921 1 -1 1 2.12e-05 0 (0.300095 -0.00481517 -0.0178622) 2650 590.031 0 (0 0 0) (0 0 0)
1.100000e+03	7 (0 0.114589 0.745512 0.139899) (23.5 0.244522 0.90685) 548 35303 2 35303 0.509483 0 12230 1 -1 1.00001 4.3e-06 0 (0.319227 -0.00997156 0.00461522) 2650 587.509 0 (0 0 0) (0 0 0)
