# Time         currentProc " (coordinates0 coordinates1 coordinates2 coordinates3) (position0 position1 position2) celli tetFacei tetPti facei stepFraction origProc origId active typeId nParticle d dTarget (U0 U1 U2) rho age tTurb (UTurb0 UTurb1 UTurb2) (UCorrect0 UCorrect1 UCorrect2)"
9.880000e+02	5 (0 0.208684 0.36419 0.427125) (23.5 0.993666 1.20959) 1843 33061 2 33061 0.482773 0 6166 1 -1 1.00001 3.3e-06 0 (0.362612 -0.00462359 0.0849485) 2650 474.483 0 (0 0 0) (0 0 0)
9.900000e+02	5 (0 0.497416 0.0559608 0.446624) (23.5 0.459921 1.29947) 361 32969 1 32969 0.072466 0 3680 1 -1 1 2.12e-05 0 (0.521772 -0.00885858 0.0580868) 2650 481.072 0 (0 0 0) (0 0 0)
9.900000e+02	5 (0 0.499839 0.301612 0.198549) (23.5 0.842882 1.2098) 1106 32992 1 32992 0.634837 0 4003 1 -1 1 1.25e-05 0 (0.489877 0.0233223 0.153273) 2650 480.635 0 (0 0 0) (0 0 0)
9.900000e+02	5 (0 0.163688 0.419052 0.417261) (23.5 0.865291 1.15576) 1274 32990 1 32990 0.566658 0 3700 1 -1 1 2.12e-05 0 (0.484618 0.0259489 0.168849) 2650 481.567 0 (0 0 0) (0 0 0)
