# Time         currentProc " (coordinates0 coordinates1 coordinates2 coordinates3) (position0 position1 position2) celli tetFacei tetPti facei stepFraction origProc origId active typeId nParticle d dTarget (U0 U1 U2) rho age tTurb (UTurb0 UTurb1 UTurb2) (UCorrect0 UCorrect1 UCorrect2)"
9.890000e+02	1 (0 0.426297 0.485146 0.0885575) (23.5 0.771402 1.37983) 388 22764 2 22764 0.576283 5 10227 1 -1 1 8.9e-06 0 (0.417295 -0.00200612 0.00883262) 2650 478.576 0 (0 0 0) (0 0 0)
