# Time         currentProc " (coordinates0 coordinates1 coordinates2 coordinates3) (position0 position1 position2) celli tetFacei tetPti facei stepFraction origProc origId active typeId nParticle d dTarget (U0 U1 U2) rho age tTurb (UTurb0 UTurb1 UTurb2) (UCorrect0 UCorrect1 UCorrect2)"
8.160000e+02	1 (0 0.144195 0.572758 0.283047) (23.5 0.971036 1.1367) 193 22852 2 22852 0.252315 5 9874 1 -1 1 8.9e-06 0 (0.34626 -0.000771635 0.0193101) 2650 305.252 0 (0 0 0) (0 0 0)
8.170000e+02	1 (0 0.0433759 0.257348 0.699276) (23.5 0.520717 1.33659) 404 22753 2 22753 0.986933 5 11596 1 -1 1 4.3e-06 0 (0.441191 0.00464615 0.00486802) 2650 304.987 0 (0 0 0) (0 0 0)
8.190000e+02	1 (0 0.224198 0.158735 0.617067) (23.5 0.979362 1.07542) 190 22849 2 22849 0.0934825 5 11543 1 -1 1 4.3e-06 0 (0.329893 0.000757991 0.0204241) 2650 306.093 0 (0 0 0) (0 0 0)
8.190000e+02	1 (0 0.258034 0.0651191 0.676847) (23.5 0.967655 1.14885) 193 22852 1 22852 0.403628 5 11561 1 -1 1 4.3e-06 0 (0.35661 -0.000725726 0.0165208) 2650 306.404 0 (0 0 0) (0 0 0)
8.190000e+02	1 (0 0.0913613 0.755649 0.15299) (23.5 0.333208 1.35048) 394 22732 1 22732 0.255174 5 10208 1 -1 1 8.9e-06 0 (0.424328 0.00902011 0.00592405) 2650 308.255 0 (0 0 0) (0 0 0)
