# Time         currentProc " (coordinates0 coordinates1 coordinates2 coordinates3) (position0 position1 position2) celli tetFacei tetPti facei stepFraction origProc origId active typeId nParticle d dTarget (U0 U1 U2) rho age tTurb (UTurb0 UTurb1 UTurb2) (UCorrect0 UCorrect1 UCorrect2)"
7.860000e+02	5 (0 0.121501 0.298168 0.580331) (23.5 0.682852 1.25842) 806 32986 2 32986 0.588348 0 6725 1 -1 1 1.3e-06 0 (0.524488 -0.0246614 0.0616067) 2650 271.588 0 (0 0 0) (0 0 0)
7.900000e+02	5 (0 0.521992 0.331195 0.146813) (23.5 0.973026 1.18501) 1844 33059 1 33059 0.960243 0 2989 1 -1 1 5.3e-05 0 (0.503515 -0.0147652 -0.0351746) 2650 283.96 0 (0 0 0) (0 0 0)
7.900000e+02	5 (0 0.221546 0.0750396 0.703414) (23.5 0.482183 1.1748) 562 32955 1 32955 0.916068 0 2213 1 -1 1 7.5e-05 0 (0.521353 -0.0449596 0.145289) 2650 284.916 0 (0 0 0) (0 0 0)
7.900000e+02	5 (0 0.0480237 0.304841 0.647135) (23.5 0.364332 1.1919) 455 32954 2 32954 0.765043 0 6002 1 -1 1.00001 3.3e-06 0 (0.523835 -0.0416182 0.149225) 2650 276.765 0 (0 0 0) (0 0 0)
7.900000e+02	5 (0 0.124515 0.140739 0.734745) (23.5 0.649797 1.10939) 953 32977 1 32977 0.176237 0 4104 1 -1 1 1.25e-05 0 (0.486016 -0.0475348 0.186684) 2650 280.176 0 (0 0 0) (0 0 0)
