# Time         currentProc " (coordinates0 coordinates1 coordinates2 coordinates3) (position0 position1 position2) celli tetFacei tetPti facei stepFraction origProc origId active typeId nParticle d dTarget (U0 U1 U2) rho age tTurb (UTurb0 UTurb1 UTurb2) (UCorrect0 UCorrect1 UCorrect2)"
1.137000e+03	7 (0 0.0166133 0.604171 0.379215) (23.5 0.938688 0.782268) 562 35378 1 35378 0.78884 0 12232 1 -1 1.00001 4.3e-06 0 (0.190951 -0.00935122 -0.0820431) 2650 624.789 0 (0 0 0) (0 0 0)
1.137000e+03	7 (0 0.151933 0.531701 0.316366) (23.5 0.034232 0.510852) 175 35549 1 35549 0.266862 0 4115 1 -1 1 7.5e-05 0 (0.216486 -0.025153 -0.0401211) 2650 631.267 0 (0 0 0) (0 0 0)
1.137000e+03	7 (0 0.310405 0.223981 0.465614) (23.5 0.170602 1.4358) 456 35338 1 35338 0.563298 0 13352 1 -1 1 1.3e-06 0 (0.19295 0.0418086 0.0225395) 2650 622.563 0 (0 0 0) (0 0 0)
1.139000e+03	7 (0 0.235716 0.423098 0.341186) (23.5 0.785508 1.52424) 445 35437 1 35437 0.307263 0 6336 1 -1 1 3.26e-05 0 (0.205977 0.0647328 -0.0046734) 2650 631.307 0 (0 0 0) (0 0 0)
1.139000e+03	7 (0 0.160332 0.224639 0.615029) (23.5 0.0750133 1.46157) 455 35337 2 35337 0.638304 0 11264 1 -1 1.00001 4.3e-06 0 (0.180716 0.022526 0.0247038) 2650 626.638 0 (0 0 0) (0 0 0)
1.140000e+03	7 (0 0.360348 0.0968503 0.542801) (23.5 0.019246 1.05469) 154 35483 2 35483 0.642815 0 10067 1 -1 1.00001 8.9e-06 0 (0.184787 -0.000222105 0.0606106) 2650 629.643 0 (0 0 0) (0 0 0)
