# Time         currentProc " (coordinates0 coordinates1 coordinates2 coordinates3) (position0 position1 position2) celli tetFacei tetPti facei stepFraction origProc origId active typeId nParticle d dTarget (U0 U1 U2) rho age tTurb (UTurb0 UTurb1 UTurb2) (UCorrect0 UCorrect1 UCorrect2)"
9.800000e+02	1 (0 0.463028 0.187301 0.349671) (23.5 0.382954 1.43297) 378 22737 1 22737 0.701495 5 12068 1 -1 1 4.3e-06 0 (0.438025 0.00230817 0.00299017) 2650 467.701 0 (0 0 0) (0 0 0)
