# Time         currentProc " (coordinates0 coordinates1 coordinates2 coordinates3) (position0 position1 position2) celli tetFacei tetPti facei stepFraction origProc origId active typeId nParticle d dTarget (U0 U1 U2) rho age tTurb (UTurb0 UTurb1 UTurb2) (UCorrect0 UCorrect1 UCorrect2)"
8.860000e+02	5 (0 0.15446 0.0809621 0.764578) (23.5 0.881663 1.32811) 1105 33007 2 33007 0.166226 0 2300 1 -1 1 7.5e-05 0 (0.539473 -0.00873278 0.0831226) 2650 380.166 0 (0 0 0) (0 0 0)
8.890000e+02	5 (0 0.104182 0.0117812 0.884037) (23.5 0.131336 1.53332) 30 33034 1 33034 0.17361 0 3652 1 -1 1 2.12e-05 0 (0.536116 0.0190411 0.00290633) 2650 380.174 0 (0 0 0) (0 0 0)
8.890000e+02	5 (0 0.221849 0.338716 0.439435) (23.5 0.446843 1.46127) 212 32975 2 32975 0.949481 0 2843 1 -1 1 5.3e-05 0 (0.53723 0.0153202 0.0246789) 2650 382.949 0 (0 0 0) (0 0 0)
8.900000e+02	5 (0 0.106728 0.157109 0.736163) (23.5 0.932799 1.17773) 1455 32991 1 32991 0.147184 0 2453 1 -1 1 7.5e-05 0 (0.512981 -0.00521166 0.18145) 2650 384.147 0 (0 0 0) (0 0 0)
8.900000e+02	5 (0 0.0606622 0.0625133 0.876824) (23.5 0.424397 1.0398) 809 33020 2 33020 0.942351 0 6542 1 -1 1 1.3e-06 0 (0.475403 -0.00060294 0.196399) 2650 375.942 0 (0 0 0) (0 0 0)
