# Time         currentProc " (coordinates0 coordinates1 coordinates2 coordinates3) (position0 position1 position2) celli tetFacei tetPti facei stepFraction origProc origId active typeId nParticle d dTarget (U0 U1 U2) rho age tTurb (UTurb0 UTurb1 UTurb2) (UCorrect0 UCorrect1 UCorrect2)"
7.510000e+02	1 (0 0.0655621 0.0791269 0.855311) (23.5 0.742256 1.33501) 407 22758 2 22758 0.339154 5 10228 1 -1 1 8.9e-06 0 (0.426754 -0.0030515 0.0151247) 2650 240.339 0 (0 0 0) (0 0 0)
7.540000e+02	1 (0 0.0764126 0.025695 0.897892) (23.5 0.877537 1.47063) 385 22774 2 22774 0.166343 5 9253 1 -1 1 8.9e-06 0 (0.421527 -0.00740536 0.0116057) 2650 243.166 0 (0 0 0) (0 0 0)
7.540000e+02	1 (0 0.434323 0.0361484 0.529528) (23.5 0.161567 1.30562) 399 22718 1 22718 0.687809 5 11552 1 -1 1 4.3e-06 0 (0.411554 0.00129104 0.00245338) 2650 241.688 0 (0 0 0) (0 0 0)
