# Time         currentProc " (coordinates0 coordinates1 coordinates2 coordinates3) (position0 position1 position2) celli tetFacei tetPti facei stepFraction origProc origId active typeId nParticle d dTarget (U0 U1 U2) rho age tTurb (UTurb0 UTurb1 UTurb2) (UCorrect0 UCorrect1 UCorrect2)"
6.360000e+02	1 (0 0.312337 3.50054e-05 0.687628) (23.5 0.444585 0.998743) 161 22815 2 22815 0.114848 5 9525 1 -1 1 8.9e-06 0 (0.196957 -0.011383 0.0107745) 2650 125.115 0 (0 0 0) (0 0 0)
6.360000e+02	1 (0 0.119567 0.817771 0.0626618) (23.5 0.650109 1.41393) 381 22762 1 22762 0.12051 5 9780 1 -1 1 8.9e-06 0 (0.434134 0.00918203 0.000604519) 2650 125.121 0 (0 0 0) (0 0 0)
6.360000e+02	1 (0 0.00373195 0.557341 0.438927) (23.5 0.949752 1.33984) 203 22786 2 22786 0.32783 5 9635 1 -1 1 8.9e-06 0 (0.420144 0.000138469 0.00184484) 2650 125.328 0 (0 0 0) (0 0 0)
6.360000e+02	1 (0 0.772088 0.054132 0.17378) (23.5 0.0749903 1.13897) 422 22705 1 22705 0.0456538 5 11936 1 -1 1 4.3e-06 0 (0.398918 -0.00765007 0.0302921) 2650 123.046 0 (0 0 0) (0 0 0)
6.360000e+02	1 (0 0.289348 0.130865 0.579787) (23.5 0.714387 1.30928) 406 22757 1 22757 0.398385 5 9700 1 -1 1 8.9e-06 0 (0.437095 0.00183714 0.00354786) 2650 125.398 0 (0 0 0) (0 0 0)
6.360000e+02	1 (0 0.613921 0.123724 0.262355) (23.5 0.764051 1.07823) 436 22744 1 22744 0.0794704 5 2750 1 -1 1 0.00015 0 (0.422864 -0.00986431 -0.000362434) 2650 132.079 0 (0 0 0) (0 0 0)
6.360000e+02	1 (0 0.291046 0.405402 0.303552) (23.5 0.787102 1.05426) 171 22829 1 22829 0.165571 5 4954 1 -1 1 7.5e-05 0 (0.417008 -0.00910599 0.0121832) 2650 130.166 0 (0 0 0) (0 0 0)
6.360000e+02	1 (0 0.829211 0.168333 0.00245599) (23.5 0.820297 1.06144) 435 22747 1 22747 0.224545 5 9964 1 -1 1 8.9e-06 0 (0.418848 -0.00793465 0.0157197) 2650 125.225 0 (0 0 0) (0 0 0)
6.360000e+02	1 (0 0.107906 0.682717 0.209376) (23.5 0.727969 1.14053) 430 22745 1 22745 0.111091 5 10092 1 -1 1 8.9e-06 0 (0.430433 -0.00822937 0.0118774) 2650 125.111 0 (0 0 0) (0 0 0)
6.360000e+02	1 (0 0.226925 0.632665 0.140411) (23.5 0.718831 1.13576) 430 22745 1 22745 0.140376 5 9997 1 -1 1 8.9e-06 0 (0.429972 -0.00869645 0.0122369) 2650 125.14 0 (0 0 0) (0 0 0)
6.360000e+02	1 (0 0.242449 0.275534 0.482017) (23.5 0.602374 1.32216) 405 22754 2 22754 0.541342 5 9229 1 -1 1 8.9e-06 0 (0.43196 0.00374852 0.00333485) 2650 125.541 0 (0 0 0) (0 0 0)
6.360000e+02	1 (0 0.00897233 0.146705 0.844322) (23.5 0.579681 1.11589) 439 22739 1 22739 0.0558757 5 4560 1 -1 1 7.5e-05 0 (0.425287 -0.0126493 0.00983258) 2650 130.056 0 (0 0 0) (0 0 0)
6.360000e+02	1 (0 0.383065 0.356907 0.260028) (23.5 0.549684 1.21377) 415 22751 1 22751 0.213769 5 12072 1 -1 1 4.3e-06 0 (0.428961 -0.0054958 0.00909974) 2650 123.214 0 (0 0 0) (0 0 0)
6.360000e+02	1 (0 0.409786 0.123806 0.466408) (23.5 0.462502 1.05131) 159 22817 1 22817 0.14726 5 2158 1 -1 1 0.00015 0 (0.41156 -0.0194049 0.0032636) 2650 132.147 0 (0 0 0) (0 0 0)
6.360000e+02	1 (0 0.558946 0.302732 0.138322) (23.5 0.364375 1.43904) 378 22737 2 22737 0.205214 5 11731 1 -1 1 4.3e-06 0 (0.409688 0.0168025 0.00272537) 2650 123.205 0 (0 0 0) (0 0 0)
6.360000e+02	1 (0 0.0511426 0.666375 0.282482) (23.5 0.168926 1.40587) 396 22720 2 22720 0.153415 5 12135 1 -1 1 4.3e-06 0 (0.403803 0.0103346 0.0146309) 2650 123.153 0 (0 0 0) (0 0 0)
6.360000e+02	1 (0 0.306539 0.65821 0.0352513) (23.5 0.239008 1.38826) 395 22731 2 22731 0.52416 5 4437 1 -1 1 7.5e-05 0 (0.407859 0.0100376 0.00623832) 2650 130.524 0 (0 0 0) (0 0 0)
6.360000e+02	1 (0 0.405056 0.465321 0.129623) (23.5 0.840149 1.38107) 387 22771 2 22771 0.598509 5 4596 1 -1 1 7.5e-05 0 (0.440098 0.00256876 -0.00329433) 2650 130.599 0 (0 0 0) (0 0 0)
6.360000e+02	1 (0 0.163314 0.00776908 0.828917) (23.5 0.737103 1.32793) 407 22758 2 22758 0.610747 5 10184 1 -1 1 8.9e-06 0 (0.438193 0.0028146 0.00275104) 2650 125.611 0 (0 0 0) (0 0 0)
6.360000e+02	1 (0 0.209011 0.507031 0.283959) (23.5 0.773311 1.32456) 407 22758 2 22758 0.733717 5 9613 1 -1 1 8.9e-06 0 (0.438961 0.00201735 0.00277979) 2650 125.734 0 (0 0 0) (0 0 0)
6.360000e+02	1 (0 0.226764 0.526198 0.247038) (23.5 0.860926 1.14366) 432 22749 1 22749 0.982482 5 4929 1 -1 1 7.5e-05 0 (0.427298 -0.00542554 0.00553813) 2650 130.982 0 (0 0 0) (0 0 0)
6.360000e+02	1 (0 0.143207 0.321476 0.535317) (23.5 0.819172 1.04511) 176 22832 2 22832 0.942857 5 12201 1 -1 1 4.3e-06 0 (0.411809 -0.00744337 0.0175575) 2650 123.943 0 (0 0 0) (0 0 0)
6.360000e+02	1 (0 0.239487 0.526819 0.233694) (23.5 0.640876 1.21189) 414 22752 1 22752 0.489978 5 10094 1 -1 1 8.9e-06 0 (0.432267 -0.00467933 0.00844413) 2650 125.49 0 (0 0 0) (0 0 0)
6.360000e+02	1 (0 0.261952 0.680135 0.057913) (23.5 0.559424 1.19918) 415 22751 1 22751 0.475861 5 10087 1 -1 1 8.9e-06 0 (0.429079 -0.00659355 0.00975228) 2650 125.476 0 (0 0 0) (0 0 0)
6.360000e+02	1 (0 0.879693 0.0983915 0.0219159) (23.5 0.498236 1.01916) 160 22816 1 22816 0.805728 5 2796 1 -1 1 0.00015 0 (0.379126 -0.0195848 0.00413133) 2650 132.806 0 (0 0 0) (0 0 0)
6.360000e+02	1 (0 0.165076 0.61797 0.216954) (23.5 0.549788 1.25526) 415 22751 2 22751 0.990214 5 11858 1 -1 1 4.3e-06 0 (0.429477 -0.00188367 0.00682069) 2650 123.99 0 (0 0 0) (0 0 0)
6.370000e+02	1 (0 0.215223 0.0752929 0.709484) (23.5 0.66538 1.3947) 389 22763 2 22763 0.78677 5 11662 1 -1 1 4.3e-06 0 (0.434518 0.00824161 0.00132426) 2650 124.787 0 (0 0 0) (0 0 0)
6.370000e+02	1 (0 0.130856 0.479608 0.389536) (23.5 0.696286 1.46744) 382 22765 2 22765 0.815466 5 11787 1 -1 1 4.3e-06 0 (0.435882 0.010183 0.000233919) 2650 124.815 0 (0 0 0) (0 0 0)
6.370000e+02	1 (0 0.297494 0.204397 0.498108) (23.5 0.596604 1.38893) 390 22760 2 22760 0.723316 5 11712 1 -1 1 4.3e-06 0 (0.43026 0.0092884 0.00150043) 2650 124.723 0 (0 0 0) (0 0 0)
6.370000e+02	1 (0 0.253863 0.39021 0.355927) (23.5 0.559979 1.43337) 380 22761 1 22761 0.559767 5 11648 1 -1 1 4.3e-06 0 (0.426588 0.013003 0.000589508) 2650 124.56 0 (0 0 0) (0 0 0)
6.370000e+02	1 (0 0.156487 0.186523 0.65699) (23.5 0.647511 1.24244) 414 22752 1 22752 0.426151 5 9934 1 -1 1 8.9e-06 0 (0.432916 -0.00160875 0.00711528) 2650 126.426 0 (0 0 0) (0 0 0)
6.370000e+02	1 (0 0.0610881 0.68078 0.258132) (23.5 0.575488 1.0778) 439 22739 1 22739 0.352471 5 4529 1 -1 1 7.5e-05 0 (0.420361 -0.0145301 0.0121618) 2650 131.352 0 (0 0 0) (0 0 0)
6.370000e+02	1 (0 0.0663405 0.346514 0.587145) (23.5 0.447389 1.33492) 403 22730 2 22730 0.309406 5 11691 1 -1 1 4.3e-06 0 (0.422171 0.0057226 0.00478617) 2650 124.309 0 (0 0 0) (0 0 0)
6.370000e+02	1 (0 0.00728721 0.409667 0.583045) (23.5 0.452477 1.33921) 403 22730 2 22730 0.160402 5 11627 1 -1 1 4.3e-06 0 (0.422327 0.00616504 0.00448646) 2650 124.16 0 (0 0 0) (0 0 0)
6.370000e+02	1 (0 0.188584 0.0504182 0.760998) (23.5 0.644665 1.39303) 390 22760 1 22760 0.908299 5 11851 1 -1 1 4.3e-06 0 (0.433407 0.00845539 0.00139971) 2650 124.908 0 (0 0 0) (0 0 0)
6.370000e+02	1 (0 0.47573 0.152426 0.371844) (23.5 0.69987 1.36579) 389 22763 1 22763 0.817872 5 9793 1 -1 1 8.9e-06 0 (0.436367 0.00576599 0.00204361) 2650 126.818 0 (0 0 0) (0 0 0)
6.370000e+02	1 (0 0.130009 0.863298 0.00669298) (23.5 0.867736 1.33991) 387 22771 1 22771 0.642096 5 4725 1 -1 1 7.5e-05 0 (0.438787 0.00178017 -0.00247658) 2650 131.642 0 (0 0 0) (0 0 0)
6.370000e+02	1 (0 0.403138 0.314975 0.281887) (23.5 0.705398 1.14551) 430 22745 1 22745 0.539778 5 11680 1 -1 1 4.3e-06 0 (0.430079 -0.0078317 0.0121351) 2650 124.54 0 (0 0 0) (0 0 0)
6.370000e+02	1 (0 0.686772 0.190502 0.122726) (23.5 0.444785 1.06901) 440 22712 1 22712 0.479678 5 2250 1 -1 1 0.00015 0 (0.416182 -0.0178439 0.00239244) 2650 133.48 0 (0 0 0) (0 0 0)
6.370000e+02	1 (0 0.106817 0.226374 0.666809) (23.5 0.437715 1.33199) 403 22730 2 22730 0.80373 5 11659 1 -1 1 4.3e-06 0 (0.421684 0.00540406 0.00510497) 2650 124.804 0 (0 0 0) (0 0 0)
6.370000e+02	1 (0 0.0991728 0.818441 0.0823866) (23.5 0.256771 1.06647) 443 22707 1 22707 0.993857 5 2261 1 -1 1 0.00015 0 (0.409141 -0.0191169 0.00546907) 2650 133.994 0 (0 0 0) (0 0 0)
6.380000e+02	1 (0 0.558657 0.310006 0.131337) (23.5 0.693315 1.41848) 382 22765 1 22765 0.880357 5 9683 1 -1 1 8.9e-06 0 (0.435191 0.00889528 0.00100844) 2650 127.88 0 (0 0 0) (0 0 0)
6.380000e+02	1 (0 0.0872626 0.537944 0.374793) (23.5 0.543242 1.47033) 380 22761 2 22761 0.127147 5 9682 1 -1 1 8.9e-06 0 (0.42383 0.0158544 8.95475e-05) 2650 127.127 0 (0 0 0) (0 0 0)
6.380000e+02	1 (0 0.0142527 0.819805 0.165943) (23.5 0.962734 1.46503) 205 22788 1 22788 0.23334 5 9680 1 -1 1 8.9e-06 0 (0.41363 0.00083473 0.000584231) 2650 127.233 0 (0 0 0) (0 0 0)
6.380000e+02	1 (0 0.043209 0.776856 0.179935) (23.5 0.656351 1.35236) 390 22760 1 22760 0.209222 5 11808 1 -1 1 4.3e-06 0 (0.433623 0.00651529 0.00273329) 2650 125.209 0 (0 0 0) (0 0 0)
6.380000e+02	1 (0 0.285507 0.462712 0.251782) (23.5 0.787975 1.07758) 436 22744 1 22744 0.521321 5 4562 1 -1 1 7.5e-05 0 (0.421837 -0.00889262 0.0107596) 2650 132.521 0 (0 0 0) (0 0 0)
6.380000e+02	1 (0 0.376077 0.359165 0.264758) (23.5 0.781375 1.07841) 436 22744 1 22744 0.112768 5 10154 1 -1 1 8.9e-06 0 (0.422042 -0.00906058 0.0153869) 2650 127.113 0 (0 0 0) (0 0 0)
6.380000e+02	1 (0 0.17018 0.628928 0.200893) (23.5 0.630495 1.25492) 414 22752 2 22752 0.137703 5 9792 1 -1 1 8.9e-06 0 (0.432116 -1.13464e-06 0.00689968) 2650 127.138 0 (0 0 0) (0 0 0)
6.380000e+02	1 (0 0.280224 0.0878337 0.631942) (23.5 0.637691 1.24063) 414 22752 1 22752 0.0165192 5 10081 1 -1 1 8.9e-06 0 (0.432111 -0.00108041 0.00763436) 2650 127.017 0 (0 0 0) (0 0 0)
6.380000e+02	1 (0 0.324561 0.0122071 0.663232) (23.5 0.145897 1.47659) 372 22843 2 22843 0.0842087 5 11744 1 -1 1 4.3e-06 0 (0.393039 0.01416 0.00842128) 2650 125.084 0 (0 0 0) (0 0 0)
6.380000e+02	1 (0 0.0195047 0.683596 0.296899) (23.5 0.9193 1.40753) 386 22772 2 22772 0.735901 5 4139 1 -1 1 7.5e-05 0 (0.433149 0.00207279 -0.00343836) 2650 132.736 0 (0 0 0) (0 0 0)
6.380000e+02	1 (0 0.51807 0.0879564 0.393974) (23.5 0.881601 1.093) 434 22748 2 22748 0.698741 5 11616 1 -1 1 4.3e-06 0 (0.417696 -0.00556807 0.0131654) 2650 125.699 0 (0 0 0) (0 0 0)
6.380000e+02	1 (0 0.2754 0.469461 0.255139) (23.5 0.558362 1.28569) 404 22753 1 22753 0.772862 5 10062 1 -1 1 8.9e-06 0 (0.429215 0.00210812 0.00587001) 2650 127.773 0 (0 0 0) (0 0 0)
6.380000e+02	1 (0 0.0323318 0.879359 0.0883088) (23.5 0.490286 1.33739) 403 22730 2 22730 0.823376 5 4373 1 -1 1 7.5e-05 0 (0.424714 0.00644155 -0.00050441) 2650 132.823 0 (0 0 0) (0 0 0)
6.380000e+02	1 (0 0.139894 0.217035 0.643071) (23.5 0.280565 1.46683) 377 22734 2 22734 0.811489 5 9492 1 -1 1 8.9e-06 0 (0.40332 0.0188038 0.00417625) 2650 127.811 0 (0 0 0) (0 0 0)
6.380000e+02	1 (0 0.323361 0.145077 0.531562) (23.5 0.431156 1.31628) 403 22730 2 22730 0.990024 5 11786 1 -1 1 4.3e-06 0 (0.42205 0.00423168 0.00622614) 2650 125.99 0 (0 0 0) (0 0 0)
6.390000e+02	1 (0 0.438656 0.098 0.463344) (23.5 0.693381 1.48238) 365 22776 2 22776 0.778112 5 10153 1 -1 1 8.9e-06 0 (0.434071 0.0108156 0.000281389) 2650 128.778 0 (0 0 0) (0 0 0)
6.390000e+02	1 (0 0.574596 0.0951131 0.330291) (23.5 0.97411 1.3161) 199 22779 1 22779 0.0979436 5 4625 1 -1 1 7.5e-05 0 (0.389729 0.00021843 -0.00211345) 2650 133.098 0 (0 0 0) (0 0 0)
6.390000e+02	1 (0 0.169158 0.308571 0.522271) (23.5 0.566824 1.3763) 391 22759 1 22759 0.217426 5 4979 1 -1 1 7.5e-05 0 (0.428023 0.00927639 -0.00221877) 2650 133.217 0 (0 0 0) (0 0 0)
6.390000e+02	1 (0 0.504925 0.254046 0.241029) (23.5 0.0273926 1.07661) 133 22795 1 22795 0.877436 5 4881 1 -1 1 7.5e-05 0 (0.359188 -0.00358506 0.0199708) 2650 133.877 0 (0 0 0) (0 0 0)
6.390000e+02	1 (0 0.407064 0.175689 0.417247) (23.5 0.0860082 1.04183) 146 22793 2 22793 0.676925 5 4771 1 -1 1 7.5e-05 0 (0.372729 -0.0102919 0.0199705) 2650 133.677 0 (0 0 0) (0 0 0)
6.390000e+02	1 (0 0.0161904 0.422558 0.561251) (23.5 0.579099 1.09749) 439 22739 1 22739 0.0375923 5 12040 1 -1 1 4.3e-06 0 (0.422264 -0.0116121 0.0161885) 2650 126.038 0 (0 0 0) (0 0 0)
6.390000e+02	1 (0 0.60656 0.210585 0.182855) (23.5 0.531686 1.28044) 404 22753 1 22753 0.242517 5 11696 1 -1 1 4.3e-06 0 (0.427923 0.00212657 0.00667124) 2650 126.243 0 (0 0 0) (0 0 0)
6.390000e+02	1 (0 0.281347 0.412838 0.305816) (23.5 0.557876 1.21707) 415 22751 1 22751 0.448599 5 4341 1 -1 1 7.5e-05 0 (0.42857 -0.00271979 0.00512779) 2650 133.449 0 (0 0 0) (0 0 0)
6.390000e+02	1 (0 0.549269 0.297879 0.152853) (23.5 0.523979 1.29988) 404 22753 2 22753 0.117435 5 10030 1 -1 1 8.9e-06 0 (0.427314 0.00361677 0.00576923) 2650 128.117 0 (0 0 0) (0 0 0)
6.390000e+02	1 (0 0.650462 0.31264 0.0368986) (23.5 0.85352 1.49582) 363 22777 2 22777 0.879771 5 9995 1 -1 1 8.9e-06 0 (0.439089 0.00483478 0.000411451) 2650 128.88 0 (0 0 0) (0 0 0)
6.390000e+02	1 (0 0.523354 0.0301921 0.446454) (23.5 0.770885 1.15698) 431 22746 1 22746 0.543421 5 11840 1 -1 1 4.3e-06 0 (0.430849 -0.00484922 0.0116037) 2650 126.543 0 (0 0 0) (0 0 0)
6.390000e+02	1 (0 0.549888 0.225152 0.22496) (23.5 0.598314 1.15706) 429 22742 2 22742 0.492331 5 4521 1 -1 1 7.5e-05 0 (0.427688 -0.00693075 0.00821154) 2650 133.492 0 (0 0 0) (0 0 0)
6.390000e+02	1 (0 0.0741551 0.0281033 0.897742) (23.5 0.502262 1.33435) 404 22753 2 22753 0.831472 5 10152 1 -1 1 8.9e-06 0 (0.425445 0.00656333 0.00426388) 2650 128.831 0 (0 0 0) (0 0 0)
6.390000e+02	1 (0 0.0942144 0.51758 0.388205) (23.5 0.461158 1.3329) 403 22730 2 22730 0.623563 5 10185 1 -1 1 8.9e-06 0 (0.423365 0.00624779 0.00500949) 2650 128.624 0 (0 0 0) (0 0 0)
6.390000e+02	1 (0 0.186115 0.726617 0.0872681) (23.5 0.244023 1.39669) 395 22731 2 22731 0.797481 5 4166 1 -1 1 7.5e-05 0 (0.409214 0.0106726 0.00501452) 2650 133.797 0 (0 0 0) (0 0 0)
6.390000e+02	1 (0 0.843423 0.146244 0.0103333) (23.5 0.263199 1.48611) 371 22844 1 22844 0.97704 5 9463 1 -1 1 8.9e-06 0 (0.401746 0.0192594 0.00339298) 2650 128.977 0 (0 0 0) (0 0 0)
6.390000e+02	1 (0 0.121534 0.446024 0.432442) (23.5 0.409822 1.22622) 417 22727 1 22727 0.899354 5 4212 1 -1 1 7.5e-05 0 (0.423119 -0.0035543 0.0066182) 2650 133.899 0 (0 0 0) (0 0 0)
6.400000e+02	1 (0 0.775162 0.103655 0.121183) (23.5 0.039907 1.14234) 131 22805 2 22805 0.314253 5 12231 1 -1 1 4.3e-06 0 (0.387984 -0.00383589 0.0299974) 2650 127.314 0 (0 0 0) (0 0 0)
6.400000e+02	1 (0 0.0804647 0.735593 0.183943) (23.5 0.0545472 1.12174) 132 22796 2 22796 0.743023 5 9546 1 -1 1 8.9e-06 0 (0.392211 -0.00569773 0.0291808) 2650 129.743 0 (0 0 0) (0 0 0)
6.400000e+02	1 (0 0.841619 0.0801875 0.0781933) (23.5 0.819762 1.20093) 411 22767 1 22767 0.116459 5 10063 1 -1 1 8.9e-06 0 (0.433372 -0.00106759 0.00919408) 2650 129.116 0 (0 0 0) (0 0 0)
6.400000e+02	1 (0 0.215418 0.278138 0.506444) (23.5 0.1767 1.37501) 396 22720 1 22720 0.218924 5 4500 1 -1 1 7.5e-05 0 (0.407848 0.00744922 0.00965541) 2650 134.219 0 (0 0 0) (0 0 0)
6.400000e+02	1 (0 0.87383 0.0943098 0.0318599) (23.5 0.429655 1.34197) 392 22736 1 22736 0.529562 5 10113 1 -1 1 8.9e-06 0 (0.421732 0.00713465 0.00518741) 2650 129.53 0 (0 0 0) (0 0 0)
6.400000e+02	1 (0 0.235836 0.0594113 0.704752) (23.5 0.344975 1.46048) 378 22737 2 22737 0.243687 5 9216 1 -1 1 8.9e-06 0 (0.409718 0.01742 0.00245392) 2650 129.244 0 (0 0 0) (0 0 0)
6.400000e+02	1 (0 0.235917 0.374332 0.389752) (23.5 0.944818 1.10152) 191 22850 1 22850 0.758952 5 4593 1 -1 1 7.5e-05 0 (0.398681 -0.00314048 0.00730753) 2650 134.759 0 (0 0 0) (0 0 0)
6.400000e+02	1 (0 0.217943 0.74888 0.0331775) (23.5 0.560292 1.17996) 428 22741 2 22741 0.499776 5 9524 1 -1 1 8.9e-06 0 (0.427598 -0.00464861 0.0119925) 2650 129.5 0 (0 0 0) (0 0 0)
6.400000e+02	1 (0 0.591439 0.305314 0.103247) (23.5 0.452349 1.27467) 403 22730 1 22730 0.85362 5 11570 1 -1 1 4.3e-06 0 (0.424671 0.00167817 0.00812464) 2650 127.854 0 (0 0 0) (0 0 0)
6.400000e+02	1 (0 0.630719 0.0419861 0.327295) (23.5 0.311543 1.03833) 153 22811 2 22811 0.865407 5 2732 1 -1 1 0.00015 0 (0.400661 -0.0203212 0.00534873) 2650 136.865 0 (0 0 0) (0 0 0)
