# Time         currentProc " (coordinates0 coordinates1 coordinates2 coordinates3) (position0 position1 position2) celli tetFacei tetPti facei stepFraction origProc origId active typeId nParticle d dTarget (U0 U1 U2) rho age tTurb (UTurb0 UTurb1 UTurb2) (UCorrect0 UCorrect1 UCorrect2)"
1.176000e+03	7 (0 0.135416 0.000989798 0.863594) (23.5 0.671792 0.461777) 207 35509 2 35509 0.768036 0 3444 1 -1 1 0.00011 0 (0.0724534 -0.00929941 -0.0143727) 2650 671.768 0 (0 0 0) (0 0 0)
1.176000e+03	7 (0 0.0346793 0.76221 0.20311) (23.5 0.860974 1.08216) 516 35399 2 35399 0.63386 0 8810 1 -1 1 1.25e-05 0 (0.278426 -0.0105886 -0.0453377) 2650 666.634 0 (0 0 0) (0 0 0)
1.179000e+03	7 (0 0.100893 0.408089 0.491018) (23.5 0.690984 0.664369) 583 35353 2 35353 0.423446 0 9238 1 -1 1.00001 8.9e-06 0 (0.191606 -0.0100034 -0.029894) 2650 668.423 0 (0 0 0) (0 0 0)
1.180000e+03	7 (0 0.139256 0.717195 0.143548) (23.5 0.637674 1.1573) 510 35386 2 35386 0.037472 0 13370 1 -1 1 1.3e-06 0 (0.275085 -0.0103967 -0.00470057) 2650 665.037 0 (0 0 0) (0 0 0)
