# Time         currentProc " (coordinates0 coordinates1 coordinates2 coordinates3) (position0 position1 position2) celli tetFacei tetPti facei stepFraction origProc origId active typeId nParticle d dTarget (U0 U1 U2) rho age tTurb (UTurb0 UTurb1 UTurb2) (UCorrect0 UCorrect1 UCorrect2)"
9.220000e+02	5 (0 0.42362 0.327558 0.248822) (23.5 0.976081 1.29794) 1453 33065 2 33065 0.895737 0 5164 1 -1 1 6.4e-06 0 (0.490127 -0.00207626 0.119848) 2650 410.896 0 (0 0 0) (0 0 0)
9.220000e+02	5 (0 0.11118 0.0543285 0.834491) (23.5 0.584819 1.18755) 807 32981 2 32981 0.660719 0 5974 1 -1 1 4.3e-06 0 (0.522285 0.00377196 0.103685) 2650 409.661 0 (0 0 0) (0 0 0)
9.230000e+02	5 (0 0.240693 0.326303 0.433003) (23.5 0.366082 1.17867) 455 32954 2 32954 0.721224 0 4491 1 -1 1 1.25e-05 0 (0.517163 -0.00108878 0.108948) 2650 413.721 0 (0 0 0) (0 0 0)
9.230000e+02	5 (0 0.0151642 0.00814127 0.976695) (23.5 0.807925 1.33781) 805 32999 1 32999 0.851033 0 3660 1 -1 1 2.12e-05 0 (0.544334 -0.0323744 0.0665477) 2650 414.851 0 (0 0 0) (0 0 0)
