# Time         currentProc " (coordinates0 coordinates1 coordinates2 coordinates3) (position0 position1 position2) celli tetFacei tetPti facei stepFraction origProc origId active typeId nParticle d dTarget (U0 U1 U2) rho age tTurb (UTurb0 UTurb1 UTurb2) (UCorrect0 UCorrect1 UCorrect2)"
8.310000e+02	1 (0 0.33144 0.481758 0.186802) (23.5 0.404553 1.03047) 157 22813 1 22813 0.475565 5 11603 1 -1 1 4.3e-06 0 (0.377219 0.000851514 0.0189381) 2650 318.476 0 (0 0 0) (0 0 0)
8.310000e+02	1 (0 0.449125 0.0230503 0.527825) (23.5 0.911087 1.1631) 433 22750 1 22750 0.592677 5 10219 1 -1 1 8.9e-06 0 (0.38968 0.00100058 0.0164736) 2650 320.593 0 (0 0 0) (0 0 0)
8.310000e+02	1 (0 0.648869 0.133652 0.217479) (23.5 0.0687729 1.2926) 398 22717 2 22717 0.840848 5 9775 1 -1 1 8.9e-06 0 (0.4066 0.00214987 0.00884751) 2650 320.841 0 (0 0 0) (0 0 0)
8.330000e+02	1 (0 0.349369 0.175825 0.474806) (23.5 0.988687 1.23263) 195 22781 1 22781 0.602294 5 9716 1 -1 1 8.9e-06 0 (0.28903 -4.95398e-05 0.0114593) 2650 322.602 0 (0 0 0) (0 0 0)
8.330000e+02	1 (0 0.117093 0.511864 0.371042) (23.5 0.942192 1.17011) 192 22853 1 22853 0.730497 5 10218 1 -1 1 8.9e-06 0 (0.383912 0.000465346 0.0167287) 2650 322.73 0 (0 0 0) (0 0 0)
8.340000e+02	1 (0 0.0147373 0.926443 0.0588195) (23.5 0.875168 1.13079) 432 22749 1 22749 0.423742 5 10216 1 -1 1 8.9e-06 0 (0.39254 0.00122997 0.0177833) 2650 323.424 0 (0 0 0) (0 0 0)
