# Time         currentProc " (coordinates0 coordinates1 coordinates2 coordinates3) (position0 position1 position2) celli tetFacei tetPti facei stepFraction origProc origId active typeId nParticle d dTarget (U0 U1 U2) rho age tTurb (UTurb0 UTurb1 UTurb2) (UCorrect0 UCorrect1 UCorrect2)"
8.340000e+02	5 (0 0.677685 0.3027 0.0196149) (23.5 0.0436155 1.02451) 287 33116 2 33116 0.963377 0 3004 1 -1 1 3.26e-05 0 (0.402121 -0.0649957 0.203939) 2650 326.963 0 (0 0 0) (0 0 0)
8.340000e+02	5 (0 0.47591 0.325602 0.198488) (23.5 0.303928 1.07477) 456 32947 1 32947 0.958223 0 3282 1 -1 1 3.26e-05 0 (0.471452 -0.0103141 0.174674) 2650 326.958 0 (0 0 0) (0 0 0)
8.340000e+02	5 (0 0.178393 0.520584 0.301023) (23.5 0.22852 1.25441) 215 32952 2 32952 0.692702 0 3313 1 -1 1 3.26e-05 0 (0.52688 -0.0339407 0.0761576) 2650 326.693 0 (0 0 0) (0 0 0)
