# Time         currentProc " (coordinates0 coordinates1 coordinates2 coordinates3) (position0 position1 position2) celli tetFacei tetPti facei stepFraction origProc origId active typeId nParticle d dTarget (U0 U1 U2) rho age tTurb (UTurb0 UTurb1 UTurb2) (UCorrect0 UCorrect1 UCorrect2)"
1.111000e+03	7 (0 0.230389 0.663851 0.105759) (23.5 0.176048 0.606099) 576 35278 1 35278 0.877765 0 12228 1 -1 1.00001 4.3e-06 0 (0.403259 -0.0308633 -0.0156393) 2650 598.878 0 (0 0 0) (0 0 0)
1.112000e+03	7 (0 0.71701 0.136803 0.146187) (23.5 0.142809 1.33999) 477 35336 1 35336 0.564401 0 8256 1 -1 1 1.25e-05 0 (0.358378 0.0439514 0.0977439) 2650 602.564 0 (0 0 0) (0 0 0)
1.112000e+03	7 (0 0.560263 0.206869 0.232867) (23.5 0.206629 1.43418) 457 35341 2 35341 0.201952 0 12068 1 -1 1.00001 4.3e-06 0 (0.340352 0.0796836 0.0570501) 2650 599.202 0 (0 0 0) (0 0 0)
1.113000e+03	7 (0 0.335206 0.0815721 0.583222) (23.5 0.238704 1.13402) 505 35321 1 35321 0.229059 0 10948 1 -1 1 6.4e-06 0 (0.182532 -0.0506093 0.0723423) 2650 601.229 0 (0 0 0) (0 0 0)
1.114000e+03	7 (0 0.253244 0.69945 0.0473053) (23.5 0.395834 0.580284) 594 35283 2 35283 0.424075 0 12209 1 -1 1.00001 4.3e-06 0 (0.239116 -0.112411 -0.0145013) 2650 601.424 0 (0 0 0) (0 0 0)
