# Time         currentProc " (coordinates0 coordinates1 coordinates2 coordinates3) (position0 position1 position2) celli tetFacei tetPti facei stepFraction origProc origId active typeId nParticle d dTarget (U0 U1 U2) rho age tTurb (UTurb0 UTurb1 UTurb2) (UCorrect0 UCorrect1 UCorrect2)"
1.016000e+03	7 (0 0.220299 0.736762 0.0429395) (23.5 0.173786 1.38711) 477 35336 2 35336 0.519624 0 8203 1 -1 1 1.25e-05 0 (0.213252 -0.000863572 0.0112157) 2650 506.52 0 (0 0 0) (0 0 0)
1.019000e+03	7 (0 0.0911308 0.76759 0.141279) (23.5 0.492649 1.18052) 497 35332 1 35332 0.993316 0 12310 1 -1 1 3.3e-06 0 (0.210871 -0.0251209 -0.00455366) 2650 505.993 0 (0 0 0) (0 0 0)
1.020000e+03	7 (0 0.333767 0.000548443 0.665684) (23.5 0.213048 0.461769) 189 35452 2 35452 0.461837 0 4738 1 -1 1 7.5e-05 0 (0.0908199 0.00443212 -0.0198123) 2650 514.462 0 (0 0 0) (0 0 0)
1.020000e+03	7 (0 0.340674 0.388726 0.2706) (23.5 0.0527362 1.34947) 141 35496 1 35496 0.981995 0 10051 1 -1 1.00001 8.9e-06 0 (0.186702 0.00215452 0.03007) 2650 509.982 0 (0 0 0) (0 0 0)
