# Time         currentProc " (coordinates0 coordinates1 coordinates2 coordinates3) (position0 position1 position2) celli tetFacei tetPti facei stepFraction origProc origId active typeId nParticle d dTarget (U0 U1 U2) rho age tTurb (UTurb0 UTurb1 UTurb2) (UCorrect0 UCorrect1 UCorrect2)"
5.630000e+02	1 (0 0.306242 0.162261 0.531497) (23.5 0.203088 1.38819) 395 22731 2 22731 0.917088 5 9727 1 -1 1 8.9e-06 0 (0.420438 -0.0362886 -0.0155817) 2650 52.9171 0 (0 0 0) (0 0 0)
5.630000e+02	1 (0 0.717067 0.142246 0.140688) (23.5 0.351511 1.35957) 393 22735 2 22735 0.724802 5 9695 1 -1 1 8.9e-06 0 (0.418921 -0.035172 5.55091e-05) 2650 52.7248 0 (0 0 0) (0 0 0)
5.630000e+02	1 (0 0.403579 0.464862 0.131559) (23.5 0.387499 1.34896) 393 22735 1 22735 0.710261 5 9663 1 -1 1 8.9e-06 0 (0.418634 -0.0314975 0.00374374) 2650 52.7103 0 (0 0 0) (0 0 0)
5.630000e+02	1 (0 0.0596817 0.733657 0.206661) (23.5 0.478555 1.3354) 403 22730 2 22730 0.917519 5 9694 1 -1 1 8.9e-06 0 (0.418971 -0.0247354 0.0129073) 2650 52.9175 0 (0 0 0) (0 0 0)
5.630000e+02	1 (0 0.00971417 0.753387 0.236899) (23.5 0.480147 1.33903) 403 22730 2 22730 0.999883 5 9725 1 -1 1 8.9e-06 0 (0.419215 -0.0260137 0.0129261) 2650 52.9999 0 (0 0 0) (0 0 0)
5.630000e+02	1 (0 0.699989 0.000898004 0.299113) (23.5 0.364006 1.3607) 393 22735 1 22735 0.828448 5 9726 1 -1 1 8.9e-06 0 (0.419156 -0.0355917 0.000939848) 2650 52.8284 0 (0 0 0) (0 0 0)
5.630000e+02	1 (0 0.548088 0.421409 0.0305024) (23.5 0.376024 1.34189) 393 22735 1 22735 0.950767 5 9631 1 -1 1 8.9e-06 0 (0.418088 -0.0292895 0.00287441) 2650 52.9508 0 (0 0 0) (0 0 0)
5.640000e+02	1 (0 0.42281 0.0362916 0.540899) (23.5 0.266515 1.38016) 394 22732 2 22732 0.0544107 5 9759 1 -1 1 8.9e-06 0 (0.419598 -0.0392677 -0.00795644) 2650 53.0544 0 (0 0 0) (0 0 0)
5.640000e+02	1 (0 0.522911 0.0239077 0.453182) (23.5 0.342193 1.37317) 393 22735 2 22735 0.214698 5 9791 1 -1 1 8.9e-06 0 (0.4196 -0.0394419 -0.000301122) 2650 53.2147 0 (0 0 0) (0 0 0)
5.640000e+02	1 (0 0.0300117 0.183138 0.78685) (23.5 0.497582 1.32426) 403 22730 1 22730 0.0158397 5 9662 1 -1 1 8.9e-06 0 (0.41884 -0.0195749 0.0156836) 2650 53.0158 0 (0 0 0) (0 0 0)
5.640000e+02	1 (0 0.210433 0.604997 0.18457) (23.5 0.926348 1.20883) 410 22768 1 22768 0.374504 5 4607 1 -1 1 7.5e-05 0 (0.423038 0.00979492 0.0410774) 2650 58.3745 0 (0 0 0) (0 0 0)
5.640000e+02	1 (0 0.185437 0.485807 0.328756) (23.5 0.927703 1.14955) 433 22750 1 22750 0.381231 5 4575 1 -1 1 7.5e-05 0 (0.418481 0.0142381 0.0360492) 2650 58.3812 0 (0 0 0) (0 0 0)
5.640000e+02	1 (0 0.51209 0.435876 0.0520335) (23.5 0.903591 1.0935) 434 22748 2 22748 0.784853 5 4543 1 -1 1 7.5e-05 0 (0.407405 0.0180863 0.0313621) 2650 58.7849 0 (0 0 0) (0 0 0)
5.640000e+02	1 (0 0.113136 0.239566 0.647297) (23.5 0.571409 1.31415) 404 22753 1 22753 0.331602 5 9724 1 -1 1 8.9e-06 0 (0.419586 -0.0132377 0.0227159) 2650 53.3316 0 (0 0 0) (0 0 0)
5.640000e+02	1 (0 0.289585 0.61363 0.0967849) (23.5 0.476688 1.34651) 392 22736 1 22736 0.225977 5 9758 1 -1 1 8.9e-06 0 (0.419857 -0.0281965 0.0126446) 2650 53.226 0 (0 0 0) (0 0 0)
5.640000e+02	1 (0 0.399588 0.505965 0.0944471) (23.5 0.54073 1.31074) 404 22753 2 22753 0.287275 5 9661 1 -1 1 8.9e-06 0 (0.418867 -0.0128788 0.0201018) 2650 53.2873 0 (0 0 0) (0 0 0)
5.640000e+02	1 (0 0.226462 0.146875 0.626663) (23.5 0.56228 1.31265) 404 22753 1 22753 0.285484 5 9693 1 -1 1 8.9e-06 0 (0.419352 -0.0129176 0.0219531) 2650 53.2855 0 (0 0 0) (0 0 0)
5.640000e+02	1 (0 0.186279 0.510867 0.302854) (23.5 0.927883 1.21731) 410 22768 1 22768 0.847677 5 4606 1 -1 1 7.5e-05 0 (0.423474 0.00886024 0.041268) 2650 58.8477 0 (0 0 0) (0 0 0)
5.640000e+02	1 (0 0.0604856 0.604034 0.33548) (23.5 0.414739 1.36323) 393 22735 1 22735 0.438511 5 9823 1 -1 1 8.9e-06 0 (0.419872 -0.0357317 0.00639322) 2650 53.4385 0 (0 0 0) (0 0 0)
5.640000e+02	1 (0 0.204272 0.732611 0.0631176) (23.5 0.558976 1.32492) 404 22753 2 22753 0.415372 5 9757 1 -1 1 8.9e-06 0 (0.420081 -0.0172598 0.0210724) 2650 53.4154 0 (0 0 0) (0 0 0)
5.640000e+02	1 (0 0.151135 0.223904 0.624961) (23.5 0.487823 1.31252) 403 22730 1 22730 0.469196 5 9630 1 -1 1 8.9e-06 0 (0.418044 -0.0155592 0.0152306) 2650 53.4692 0 (0 0 0) (0 0 0)
5.640000e+02	1 (0 0.272029 0.237045 0.490926) (23.5 0.558618 1.3028) 404 22753 1 22753 0.481321 5 9660 1 -1 1 8.9e-06 0 (0.418651 -0.00964938 0.0220975) 2650 53.4813 0 (0 0 0) (0 0 0)
5.640000e+02	1 (0 0.552419 0.105488 0.342093) (23.5 0.588905 1.29966) 405 22754 2 22754 0.546381 5 9691 1 -1 1 8.9e-06 0 (0.418985 -0.00774399 0.0249816) 2650 53.5464 0 (0 0 0) (0 0 0)
5.640000e+02	1 (0 0.504849 0.109672 0.385478) (23.5 0.589234 1.30311) 405 22754 2 22754 0.489414 5 9692 1 -1 1 8.9e-06 0 (0.419219 -0.00890054 0.0248419) 2650 53.4894 0 (0 0 0) (0 0 0)
5.640000e+02	1 (0 0.00198155 0.856072 0.141947) (23.5 0.49984 1.34967) 392 22736 1 22736 0.760978 5 9855 1 -1 1 8.9e-06 0 (0.420404 -0.0285372 0.0145622) 2650 53.761 0 (0 0 0) (0 0 0)
5.640000e+02	1 (0 0.445473 0.484421 0.0701066) (23.5 0.618957 1.30743) 405 22754 2 22754 0.727811 5 9756 1 -1 1 8.9e-06 0 (0.42026 -0.00899191 0.0272045) 2650 53.7278 0 (0 0 0) (0 0 0)
5.640000e+02	1 (0 0.133183 0.736103 0.130713) (23.5 0.559257 1.33007) 404 22753 2 22753 0.641022 5 9790 1 -1 1 8.9e-06 0 (0.420396 -0.0191224 0.0208676) 2650 53.641 0 (0 0 0) (0 0 0)
5.640000e+02	1 (0 0.566958 0.0656099 0.367433) (23.5 0.534864 1.29384) 404 22753 1 22753 0.985425 5 9629 1 -1 1 8.9e-06 0 (0.41771 -0.00709678 0.0203593) 2650 53.9854 0 (0 0 0) (0 0 0)
5.640000e+02	1 (0 0.0821167 0.617829 0.300054) (23.5 0.573931 1.28895) 404 22753 1 22753 0.894708 5 9659 1 -1 1 8.9e-06 0 (0.417971 -0.00463206 0.0241739) 2650 53.8947 0 (0 0 0) (0 0 0)
5.640000e+02	1 (0 0.526835 0.177109 0.296056) (23.5 0.618095 1.28868) 405 22754 1 22754 0.848608 5 9689 1 -1 1 8.9e-06 0 (0.418935 -0.00312893 0.0281062) 2650 53.8486 0 (0 0 0) (0 0 0)
5.640000e+02	1 (0 0.618762 0.266808 0.11443) (23.5 0.601706 1.29485) 405 22754 2 22754 0.67208 5 9690 1 -1 1 8.9e-06 0 (0.418995 -0.00551934 0.0263239) 2650 53.6721 0 (0 0 0) (0 0 0)
5.640000e+02	1 (0 0.489736 0.0816443 0.428619) (23.5 0.621022 1.2983) 405 22754 1 22754 0.679896 5 9723 1 -1 1 8.9e-06 0 (0.41968 -0.00600917 0.0278571) 2650 53.6799 0 (0 0 0) (0 0 0)
5.640000e+02	1 (0 0.0477832 0.489057 0.46316) (23.5 0.378961 1.33629) 402 22729 2 22729 0.790013 5 9599 1 -1 1 8.9e-06 0 (0.418022 -0.0269768 0.00381719) 2650 53.79 0 (0 0 0) (0 0 0)
5.650000e+02	1 (0 0.110189 0.668677 0.221134) (23.5 0.932432 1.1422) 433 22750 1 22750 0.0613469 5 4574 1 -1 1 7.5e-05 0 (0.417579 0.0144527 0.035555) 2650 59.0613 0 (0 0 0) (0 0 0)
5.650000e+02	1 (0 0.118698 0.699772 0.181529) (23.5 0.932129 1.20861) 410 22768 1 22768 0.192769 5 4605 1 -1 1 7.5e-05 0 (0.422726 0.00962832 0.0416744) 2650 59.1928 0 (0 0 0) (0 0 0)
5.650000e+02	1 (0 0.424884 0.103102 0.472014) (23.5 0.912415 1.09248) 434 22748 1 22748 0.5137 5 4542 1 -1 1 7.5e-05 0 (0.407214 0.0171839 0.0308547) 2650 59.5137 0 (0 0 0) (0 0 0)
5.650000e+02	1 (0 0.0497392 0.276171 0.67409) (23.5 0.187968 1.38677) 396 22720 1 22720 0.306357 5 9503 1 -1 1 8.9e-06 0 (0.420275 -0.0354884 -0.0176943) 2650 54.3064 0 (0 0 0) (0 0 0)
5.650000e+02	1 (0 0.458045 0.0665922 0.475362) (23.5 0.230485 1.37299) 395 22731 1 22731 0.327408 5 9535 1 -1 1 8.9e-06 0 (0.419481 -0.0356113 -0.0133395) 2650 54.3274 0 (0 0 0) (0 0 0)
5.650000e+02	1 (0 0.00631952 0.29437 0.699311) (23.5 0.190911 1.38855) 396 22720 1 22720 0.379528 5 9471 1 -1 1 8.9e-06 0 (0.420285 -0.03619 -0.017061) 2650 54.3795 0 (0 0 0) (0 0 0)
5.650000e+02	1 (0 0.887622 0.000369016 0.112009) (23.5 0.340232 1.34764) 393 22735 2 22735 0.352993 5 9567 1 -1 1 8.9e-06 0 (0.41841 -0.0309045 0.000187563) 2650 54.353 0 (0 0 0) (0 0 0)
5.650000e+02	1 (0 0.13908 0.641808 0.219112) (23.5 0.167227 1.39973) 396 22720 2 22720 0.480473 5 9439 1 -1 1 8.9e-06 0 (0.421194 -0.0359613 -0.0197828) 2650 54.4805 0 (0 0 0) (0 0 0)
5.650000e+02	1 (0 0.473553 0.165384 0.361063) (23.5 0.909334 1.08521) 434 22748 1 22748 0.810424 5 4541 1 -1 1 7.5e-05 0 (0.405434 0.0172572 0.0300728) 2650 59.8104 0 (0 0 0) (0 0 0)
5.650000e+02	1 (0 0.051239 0.716377 0.232384) (23.5 0.936161 1.14299) 433 22750 1 22750 0.642116 5 4573 1 -1 1 7.5e-05 0 (0.417875 0.0138391 0.035349) 2650 59.6421 0 (0 0 0) (0 0 0)
5.650000e+02	1 (0 0.993264 0.00397973 0.00275636) (23.5 0.876378 1.06172) 434 22748 1 22748 0.851907 5 4511 1 -1 1 7.5e-05 0 (0.397579 0.0222155 0.0298823) 2650 59.8519 0 (0 0 0) (0 0 0)
5.650000e+02	1 (0 0.397521 0.577651 0.0248289) (23.5 0.548497 1.34147) 391 22759 1 22759 0.132401 5 9887 1 -1 1 8.9e-06 0 (0.421062 -0.0230634 0.0196882) 2650 54.1324 0 (0 0 0) (0 0 0)
5.650000e+02	1 (0 0.401657 0.552792 0.0455506) (23.5 0.62807 1.2705) 405 22754 1 22754 0.34348 5 9656 1 -1 1 8.9e-06 0 (0.418427 0.00317354 0.0301218) 2650 54.3435 0 (0 0 0) (0 0 0)
5.650000e+02	1 (0 0.759649 0.10732 0.133031) (23.5 0.599632 1.27684) 405 22754 1 22754 0.201808 5 9657 1 -1 1 8.9e-06 0 (0.418334 0.000889695 0.0272492) 2650 54.2018 0 (0 0 0) (0 0 0)
5.650000e+02	1 (0 0.805369 0.0845883 0.110043) (23.5 0.587264 1.2813) 405 22754 2 22754 0.109888 5 9658 1 -1 1 8.9e-06 0 (0.41835 -0.000911701 0.0259475) 2650 54.1099 0 (0 0 0) (0 0 0)
5.650000e+02	1 (0 0.185302 0.644574 0.170123) (23.5 0.645231 1.27955) 405 22754 1 22754 0.168717 5 9688 1 -1 1 8.9e-06 0 (0.419315 0.000623925 0.0311829) 2650 54.1687 0 (0 0 0) (0 0 0)
5.650000e+02	1 (0 0.835603 0.117879 0.0465184) (23.5 0.668983 1.27914) 406 22757 2 22757 0.320654 5 9721 1 -1 1 8.9e-06 0 (0.419827 0.00136294 0.0332898) 2650 54.3207 0 (0 0 0) (0 0 0)
5.650000e+02	1 (0 0.113249 0.607225 0.279527) (23.5 0.650936 1.28749) 405 22754 1 22754 0.0214229 5 9722 1 -1 1 8.9e-06 0 (0.419929 -0.00172937 0.0312779) 2650 54.0214 0 (0 0 0) (0 0 0)
5.650000e+02	1 (0 0.659233 0.106479 0.234288) (23.5 0.668084 1.29194) 406 22757 2 22757 0.240694 5 9755 1 -1 1 8.9e-06 0 (0.420627 -0.00258507 0.0325443) 2650 54.2407 0 (0 0 0) (0 0 0)
5.650000e+02	1 (0 0.179776 0.251227 0.568997) (23.5 0.645613 1.30849) 405 22754 1 22754 0.176371 5 9789 1 -1 1 8.9e-06 0 (0.421191 -0.00820475 0.0297047) 2650 54.1764 0 (0 0 0) (0 0 0)
5.650000e+02	1 (0 0.292448 0.545991 0.161561) (23.5 0.623831 1.31854) 405 22754 2 22754 0.15789 5 9822 1 -1 1 8.9e-06 0 (0.421376 -0.0119592 0.0272875) 2650 54.1579 0 (0 0 0) (0 0 0)
5.650000e+02	1 (0 0.295838 0.481684 0.222478) (23.5 0.556717 1.28332) 404 22753 1 22753 0.35236 5 9628 1 -1 1 8.9e-06 0 (0.417983 -0.00237743 0.023147) 2650 54.3524 0 (0 0 0) (0 0 0)
5.650000e+02	1 (0 0.0780479 0.140486 0.781466) (23.5 0.18611 1.39427) 396 22720 1 22720 0.701842 5 9407 1 -1 1 8.9e-06 0 (0.420613 -0.0372421 -0.0175024) 2650 54.7018 0 (0 0 0) (0 0 0)
5.650000e+02	1 (0 0.0393809 0.761995 0.198624) (23.5 0.936902 1.14068) 433 22750 1 22750 0.862259 5 4572 1 -1 1 7.5e-05 0 (0.417733 0.0138633 0.0350328) 2650 59.8623 0 (0 0 0) (0 0 0)
5.650000e+02	1 (0 0.0961136 0.682588 0.221298) (23.5 0.933557 1.21146) 410 22768 1 22768 0.593438 5 4604 1 -1 1 7.5e-05 0 (0.422896 0.00922611 0.0417091) 2650 59.5934 0 (0 0 0) (0 0 0)
5.650000e+02	1 (0 0.32831 0.227786 0.443904) (23.5 0.890949 1.31573) 409 22770 2 22770 0.663907 5 4639 1 -1 1 7.5e-05 0 (0.427922 -0.00270225 0.0412305) 2650 59.6639 0 (0 0 0) (0 0 0)
5.650000e+02	1 (0 0.567404 0.199715 0.23288) (23.5 0.903387 1.07681) 434 22748 1 22748 0.987136 5 4540 1 -1 1 7.5e-05 0 (0.403161 0.0178344 0.0294124) 2650 59.9871 0 (0 0 0) (0 0 0)
5.650000e+02	1 (0 0.0915503 0.902672 0.00577815) (23.5 0.57313 1.34014) 391 22759 1 22759 0.470415 5 9919 1 -1 1 8.9e-06 0 (0.421453 -0.0215897 0.0219209) 2650 54.4704 0 (0 0 0) (0 0 0)
5.650000e+02	1 (0 0.669515 0.328454 0.00203119) (23.5 0.685332 1.26737) 406 22757 1 22757 0.655663 5 9720 1 -1 1 8.9e-06 0 (0.419449 0.00471304 0.0355002) 2650 54.6557 0 (0 0 0) (0 0 0)
5.650000e+02	1 (0 0.165285 0.786364 0.048351) (23.5 0.56719 1.34312) 391 22759 1 22759 0.628074 5 9951 1 -1 1 8.9e-06 0 (0.421518 -0.0228331 0.0211575) 2650 54.6281 0 (0 0 0) (0 0 0)
5.650000e+02	1 (0 0.56947 0.0557593 0.374771) (23.5 0.374368 1.36599) 393 22735 1 22735 0.481201 5 11711 1 -1 1 4.3e-06 0 (0.419714 -0.0369545 0.00266914) 2650 52.4812 0 (0 0 0) (0 0 0)
5.650000e+02	1 (0 0.457032 0.0347624 0.508205) (23.5 0.34307 1.37778) 393 22735 2 22735 0.541836 5 11743 1 -1 1 4.3e-06 0 (0.419858 -0.0409039 0.000144771) 2650 52.5418 0 (0 0 0) (0 0 0)
5.650000e+02	1 (0 0.645684 0.320137 0.0341791) (23.5 0.217155 1.4119) 376 22733 1 22733 0.724735 5 11775 1 -1 1 4.3e-06 0 (0.421087 -0.0444294 -0.0123797) 2650 52.7247 0 (0 0 0) (0 0 0)
5.650000e+02	1 (0 0.521796 0.227498 0.250705) (23.5 0.378136 1.35731) 393 22735 1 22735 0.560875 5 11679 1 -1 1 4.3e-06 0 (0.41931 -0.0338695 0.00342335) 2650 52.5609 0 (0 0 0) (0 0 0)
5.650000e+02	1 (0 0.475431 0.457626 0.0669424) (23.5 0.700214 1.27209) 406 22757 1 22757 0.764182 5 9754 1 -1 1 8.9e-06 0 (0.420165 0.00358447 0.0366016) 2650 54.7642 0 (0 0 0) (0 0 0)
5.650000e+02	1 (0 0.482918 0.20184 0.315241) (23.5 0.699587 1.29009) 406 22757 1 22757 0.84183 5 9788 1 -1 1 8.9e-06 0 (0.421404 -0.00114268 0.0354498) 2650 54.8418 0 (0 0 0) (0 0 0)
5.650000e+02	1 (0 0.409016 0.17857 0.412414) (23.5 0.673577 1.31009) 406 22757 2 22757 0.793109 5 9854 1 -1 1 8.9e-06 0 (0.421969 -0.00786195 0.0320635) 2650 54.7931 0 (0 0 0) (0 0 0)
5.650000e+02	1 (0 0.344941 0.549859 0.105199) (23.5 0.552721 1.3471) 391 22759 1 22759 0.72716 5 9983 1 -1 1 8.9e-06 0 (0.421481 -0.0247663 0.0195756) 2650 54.7272 0 (0 0 0) (0 0 0)
5.650000e+02	1 (0 0.718219 0.0697855 0.211996) (23.5 0.522659 1.35457) 391 22759 1 22759 0.795608 5 10015 1 -1 1 8.9e-06 0 (0.421356 -0.0285183 0.0163561) 2650 54.7956 0 (0 0 0) (0 0 0)
5.650000e+02	1 (0 0.678059 0.0359918 0.285949) (23.5 0.525918 1.28792) 404 22753 1 22753 0.78457 5 9598 1 -1 1 8.9e-06 0 (0.417832 -0.00456143 0.0201714) 2650 54.7846 0 (0 0 0) (0 0 0)
5.650000e+02	1 (0 0.200301 0.769006 0.0306934) (23.5 0.483875 1.34188) 392 22736 1 22736 0.798992 5 11742 1 -1 1 4.3e-06 0 (0.419907 -0.02579 0.0141012) 2650 52.799 0 (0 0 0) (0 0 0)
5.650000e+02	1 (0 0.105822 0.273493 0.620685) (23.5 0.522016 1.33205) 404 22753 2 22753 0.997139 5 11773 1 -1 1 4.3e-06 0 (0.420054 -0.0207832 0.0179472) 2650 52.9971 0 (0 0 0) (0 0 0)
5.650000e+02	1 (0 0.321789 0.271921 0.40629) (23.5 0.394019 1.36819) 393 22735 1 22735 0.669361 5 11774 1 -1 1 4.3e-06 0 (0.420021 -0.0374399 0.00457126) 2650 52.6694 0 (0 0 0) (0 0 0)
5.650000e+02	1 (0 0.0234639 0.054524 0.922012) (23.5 0.262182 1.40429) 395 22731 1 22731 0.886985 5 11807 1 -1 1 4.3e-06 0 (0.420601 -0.0465134 -0.00749056) 2650 52.887 0 (0 0 0) (0 0 0)
5.650000e+02	1 (0 0.103537 0.864707 0.0317562) (23.5 0.182301 1.40229) 396 22720 2 22720 0.934025 5 9343 1 -1 1 8.9e-06 0 (0.421008 -0.0388082 -0.0175231) 2650 54.934 0 (0 0 0) (0 0 0)
5.650000e+02	1 (0 0.159998 0.089042 0.75096) (23.5 0.507168 1.32812) 404 22753 2 22753 0.867109 5 11710 1 -1 1 4.3e-06 0 (0.419566 -0.0199669 0.0168416) 2650 52.8671 0 (0 0 0) (0 0 0)
