# Time         currentProc " (coordinates0 coordinates1 coordinates2 coordinates3) (position0 position1 position2) celli tetFacei tetPti facei stepFraction origProc origId active typeId nParticle d dTarget (U0 U1 U2) rho age tTurb (UTurb0 UTurb1 UTurb2) (UCorrect0 UCorrect1 UCorrect2)"
7.420000e+02	1 (0 0.399021 0.211541 0.389438) (23.5 0.849044 1.43524) 384 22773 1 22773 0.880656 5 9219 1 -1 1 8.9e-06 0 (0.434511 0.00510614 -0.000937738) 2650 231.881 0 (0 0 0) (0 0 0)
