# Time         currentProc " (coordinates0 coordinates1 coordinates2 coordinates3) (position0 position1 position2) celli tetFacei tetPti facei stepFraction origProc origId active typeId nParticle d dTarget (U0 U1 U2) rho age tTurb (UTurb0 UTurb1 UTurb2) (UCorrect0 UCorrect1 UCorrect2)"
8.110000e+02	5 (0 0.440435 0.129917 0.429648) (23.5 0.84693 1.22634) 1106 32992 1 32992 0.429506 0 5780 1 -1 1 4.3e-06 0 (0.523527 -0.0193761 0.12253) 2650 298.43 0 (0 0 0) (0 0 0)
8.110000e+02	5 (0 0.396656 0.0856787 0.517665) (23.5 0.619015 1.05256) 1109 33042 1 33042 0.104086 0 3460 1 -1 1 3.26e-05 0 (0.504496 -0.0199389 0.193985) 2650 303.104 0 (0 0 0) (0 0 0)
8.110000e+02	5 (0 0.204268 0.538221 0.257511) (23.5 0.543281 1.11331) 808 32976 2 32976 0.267095 0 5243 1 -1 1 6.4e-06 0 (0.511166 -0.034305 0.165441) 2650 299.267 0 (0 0 0) (0 0 0)
8.110000e+02	5 (0 0.0368466 0.727302 0.235851) (23.5 0.337279 1.21217) 283 32953 1 32953 0.786366 0 2780 1 -1 1 5.3e-05 0 (0.512044 -0.0355528 0.135836) 2650 304.786 0 (0 0 0) (0 0 0)
8.130000e+02	5 (0 0.650849 0.138346 0.210805) (23.5 0.794365 1.04668) 1457 33048 1 33048 0.643656 0 2940 1 -1 1 5.3e-05 0 (0.491349 0.000481123 0.17513) 2650 306.644 0 (0 0 0) (0 0 0)
8.140000e+02	5 (0 0.0785367 0.157017 0.764447) (23.5 0.346148 1.48607) 112 33037 2 33037 0.619968 0 3962 1 -1 1 2.12e-05 0 (0.525067 0.079494 0.0201568) 2650 305.62 0 (0 0 0) (0 0 0)
8.150000e+02	5 (0 0.116633 0.425662 0.457705) (23.5 0.49061 1.37159) 281 32971 1 32971 0.852187 0 6001 1 -1 1.00001 3.3e-06 0 (0.526096 0.0298234 0.0541267) 2650 301.852 0 (0 0 0) (0 0 0)
