# Time         currentProc " (coordinates0 coordinates1 coordinates2 coordinates3) (position0 position1 position2) celli tetFacei tetPti facei stepFraction origProc origId active typeId nParticle d dTarget (U0 U1 U2) rho age tTurb (UTurb0 UTurb1 UTurb2) (UCorrect0 UCorrect1 UCorrect2)"
8.710000e+02	1 (0 0.636525 0.230307 0.133168) (23.5 0.147949 1.20506) 420 22716 1 22716 0.951659 5 12260 1 -1 1 4.3e-06 0 (0.421573 -0.0145715 0.0397063) 2650 358.952 0 (0 0 0) (0 0 0)
8.740000e+02	1 (0 0.52071 0.272983 0.206308) (23.5 0.361769 1.22961) 417 22727 2 22727 0.106163 5 9507 1 -1 1 8.9e-06 0 (0.418162 -0.0137308 0.0143145) 2650 363.106 0 (0 0 0) (0 0 0)
8.750000e+02	1 (0 0.246771 0.735905 0.0173238) (23.5 0.244174 1.24949) 419 22723 2 22723 0.0379548 5 11587 1 -1 1 4.3e-06 0 (0.418338 -0.00988703 0.0248407) 2650 362.038 0 (0 0 0) (0 0 0)
8.750000e+02	1 (0 0.0845048 0.241589 0.673906) (23.5 0.438949 1.18917) 427 22714 2 22714 0.190012 5 11756 1 -1 1 4.3e-06 0 (0.421286 -0.0193568 0.0106632) 2650 362.19 0 (0 0 0) (0 0 0)
