# Time         currentProc " (coordinates0 coordinates1 coordinates2 coordinates3) (position0 position1 position2) celli tetFacei tetPti facei stepFraction origProc origId active typeId nParticle d dTarget (U0 U1 U2) rho age tTurb (UTurb0 UTurb1 UTurb2) (UCorrect0 UCorrect1 UCorrect2)"
9.290000e+02	1 (0 0.0862309 0.593924 0.319846) (23.5 0.163568 1.18946) 423 22706 2 22706 0.529785 5 11356 1 -1 1 4.3e-06 0 (0.402461 -0.00333522 0.0160449) 2650 416.53 0 (0 0 0) (0 0 0)
9.290000e+02	1 (0 0.222341 0.539581 0.238078) (23.5 0.304929 1.17971) 425 22710 2 22710 0.761657 5 11699 1 -1 1 4.3e-06 0 (0.412743 -0.00342064 0.0136246) 2650 416.762 0 (0 0 0) (0 0 0)
