# Time         currentProc " (coordinates0 coordinates1 coordinates2 coordinates3) (position0 position1 position2) celli tetFacei tetPti facei stepFraction origProc origId active typeId nParticle d dTarget (U0 U1 U2) rho age tTurb (UTurb0 UTurb1 UTurb2) (UCorrect0 UCorrect1 UCorrect2)"
8.760000e+02	1 (0 0.309476 0.423288 0.267236) (23.5 0.453641 1.45558) 379 22738 2 22738 0.0529793 5 10214 1 -1 1 8.9e-06 0 (0.405712 0.0329588 0.000231656) 2650 365.053 0 (0 0 0) (0 0 0)
8.790000e+02	1 (0 0.877622 0.0746389 0.0477393) (23.5 0.196188 1.27615) 400 22725 2 22725 0.718485 5 10210 1 -1 1 8.9e-06 0 (0.417696 -0.005202 0.0271806) 2650 368.718 0 (0 0 0) (0 0 0)
