# Time         currentProc " (coordinates0 coordinates1 coordinates2 coordinates3) (position0 position1 position2) celli tetFacei tetPti facei stepFraction origProc origId active typeId nParticle d dTarget (U0 U1 U2) rho age tTurb (UTurb0 UTurb1 UTurb2) (UCorrect0 UCorrect1 UCorrect2)"
1.031000e+03	7 (0 0.30668 0.11871 0.574609) (23.5 0.50958 0.974908) 533 35369 2 35369 0.448328 0 6189 1 -1 1 3.26e-05 0 (0.218736 0.000208826 -0.0482919) 2650 523.448 0 (0 0 0) (0 0 0)
1.031000e+03	7 (0 0.546092 0.107425 0.346483) (23.5 0.455949 0.861672) 545 35308 1 35308 0.312139 0 12623 1 -1 1 3.3e-06 0 (0.22566 -0.0073882 -0.0460679) 2650 517.312 0 (0 0 0) (0 0 0)
1.031000e+03	7 (0 0.601725 0.16828 0.229995) (23.5 0.353208 0.865985) 546 35307 2 35307 0.142448 0 10112 1 -1 1.00001 8.9e-06 0 (0.222277 -0.0111808 -0.0353502) 2650 520.142 0 (0 0 0) (0 0 0)
1.032000e+03	7 (0 0.373476 0.000749465 0.625774) (23.5 0.449511 0.461772) 200 35467 2 35467 0.789471 0 3389 1 -1 1 0.00011 0 (0.108943 -0.0160821 -0.0257402) 2650 527.789 0 (0 0 0) (0 0 0)
1.033000e+03	7 (0 0.618221 0.108769 0.27301) (23.5 0.530809 0.939462) 533 35369 1 35369 0.336703 0 2601 1 -1 1 0.00015 0 (0.22979 0.00408237 -0.0680314) 2650 529.337 0 (0 0 0) (0 0 0)
