# Time         currentProc " (coordinates0 coordinates1 coordinates2 coordinates3) (position0 position1 position2) celli tetFacei tetPti facei stepFraction origProc origId active typeId nParticle d dTarget (U0 U1 U2) rho age tTurb (UTurb0 UTurb1 UTurb2) (UCorrect0 UCorrect1 UCorrect2)"
8.510000e+02	5 (0 0.203543 0.631498 0.164959) (23.5 0.822794 1.05342) 1647 33051 2 33051 0.881236 0 5523 1 -1 1 4.3e-06 0 (0.478246 0.0226029 0.132042) 2650 338.881 0 (0 0 0) (0 0 0)
8.520000e+02	5 (0 0.0500027 0.129081 0.820916) (23.5 0.675027 1.5368) 358 33068 1 33068 0.401983 0 6445 1 -1 1.00001 3.3e-06 0 (0.550676 -0.00814226 0.000806982) 2650 338.402 0 (0 0 0) (0 0 0)
8.530000e+02	5 (0 0.942637 0.00980614 0.0475568) (23.5 0.999032 1.00017) 2996 33099 2 33099 0.220624 0 1911 1 -1 1 0.00011 0 (0.205483 0.0124298 0.0849912) 2650 348.221 0 (0 0 0) (0 0 0)
