# Time         currentProc " (coordinates0 coordinates1 coordinates2 coordinates3) (position0 position1 position2) celli tetFacei tetPti facei stepFraction origProc origId active typeId nParticle d dTarget (U0 U1 U2) rho age tTurb (UTurb0 UTurb1 UTurb2) (UCorrect0 UCorrect1 UCorrect2)"
8.520000e+02	1 (0 0.815817 0.120352 0.0638312) (23.5 0.404765 1.48382) 369 22855 2 22855 0.847569 5 4644 1 -1 1 7.5e-05 0 (0.421965 0.0136101 -0.0010992) 2650 346.848 0 (0 0 0) (0 0 0)
8.520000e+02	1 (0 0.485807 0.117535 0.396658) (23.5 0.668741 1.16151) 430 22745 2 22745 0.118244 5 12100 1 -1 1 4.3e-06 0 (0.42421 -0.00758766 0.0151201) 2650 339.118 0 (0 0 0) (0 0 0)
8.540000e+02	1 (0 0.83028 0.127632 0.0420889) (23.5 0.884049 1.07265) 434 22748 2 22748 0.375081 5 12263 1 -1 1 4.3e-06 0 (0.407989 -0.00223488 0.0188662) 2650 341.375 0 (0 0 0) (0 0 0)
