# Time         currentProc " (coordinates0 coordinates1 coordinates2 coordinates3) (position0 position1 position2) celli tetFacei tetPti facei stepFraction origProc origId active typeId nParticle d dTarget (U0 U1 U2) rho age tTurb (UTurb0 UTurb1 UTurb2) (UCorrect0 UCorrect1 UCorrect2)"
7.920000e+02	5 (0 0.0426912 0.350944 0.606364) (23.5 0.531713 1.53727) 211 33039 1 33039 0.63492 0 3084 1 -1 1 3.26e-05 0 (0.534693 0.11029 -1.0918e-05) 2650 284.635 0 (0 0 0) (0 0 0)
7.940000e+02	5 (0 0.131052 0.568778 0.300169) (23.5 0.965074 1.45587) 1103 33075 1 33075 0.0906164 0 4822 1 -1 1 8.9e-06 0 (0.535323 0.0566354 -0.0583348) 2650 283.091 0 (0 0 0) (0 0 0)
7.940000e+02	5 (0 0.941021 0.0267602 0.0322189) (23.5 0.268421 1.41171) 113 32973 1 32973 0.375385 0 6300 1 -1 1.00001 3.3e-06 0 (0.542162 0.0467495 0.0662899) 2650 280.375 0 (0 0 0) (0 0 0)
