# Time         currentProc " (coordinates0 coordinates1 coordinates2 coordinates3) (position0 position1 position2) celli tetFacei tetPti facei stepFraction origProc origId active typeId nParticle d dTarget (U0 U1 U2) rho age tTurb (UTurb0 UTurb1 UTurb2) (UCorrect0 UCorrect1 UCorrect2)"
8.660000e+02	5 (0 0.0473969 0.0981303 0.854473) (23.5 0.0165742 1.18491) 55 33084 1 33084 0.0251366 0 6003 1 -1 1.00001 3.3e-06 0 (0.454391 0.00440098 0.164926) 2650 352.025 0 (0 0 0) (0 0 0)
8.670000e+02	5 (0 0.0722546 0.514712 0.413033) (23.5 0.233866 1.06032) 457 33092 1 33092 0.615228 0 3210 1 -1 1 3.26e-05 0 (0.474918 -0.0138949 0.167507) 2650 359.615 0 (0 0 0) (0 0 0)
