# Time         currentProc " (coordinates0 coordinates1 coordinates2 coordinates3) (position0 position1 position2) celli tetFacei tetPti facei stepFraction origProc origId active typeId nParticle d dTarget (U0 U1 U2) rho age tTurb (UTurb0 UTurb1 UTurb2) (UCorrect0 UCorrect1 UCorrect2)"
5.760000e+02	1 (0 0.00359743 0.681685 0.314718) (23.5 0.93909 1.42982) 385 22774 1 22774 0.141488 5 4860 1 -1 1 7.5e-05 0 (0.402683 -0.0120752 0.0302652) 2650 70.1415 0 (0 0 0) (0 0 0)
5.760000e+02	1 (0 0.146345 0.547244 0.306411) (23.5 0.94272 1.45526) 204 22789 1 22789 0.839319 5 4957 1 -1 1 7.5e-05 0 (0.393756 -0.0107217 0.0218491) 2650 70.8393 0 (0 0 0) (0 0 0)
5.760000e+02	1 (0 0.225585 0.613837 0.160579) (23.5 0.948415 1.35509) 203 22786 2 22786 0.73948 5 4859 1 -1 1 7.5e-05 0 (0.408988 -0.00488583 0.044175) 2650 70.7395 0 (0 0 0) (0 0 0)
5.760000e+02	1 (0 0.137405 0.0688435 0.793751) (23.5 0.930658 1.46194) 385 22774 1 22774 0.896057 5 5052 1 -1 1 7.5e-05 0 (0.396782 -0.0125295 0.020439) 2650 70.8961 0 (0 0 0) (0 0 0)
5.760000e+02	1 (0 0.536473 0.411618 0.0519092) (23.5 0.953165 1.23397) 197 22783 2 22783 0.355199 5 4825 1 -1 1 7.5e-05 0 (0.409707 0.00667951 0.0491452) 2650 70.3552 0 (0 0 0) (0 0 0)
5.760000e+02	1 (0 0.26474 0.703786 0.0314749) (23.5 0.858629 1.34167) 387 22771 1 22771 0.203683 5 9911 1 -1 1 8.9e-06 0 (0.422176 -0.00725127 0.0451434) 2650 65.2037 0 (0 0 0) (0 0 0)
5.760000e+02	1 (0 0.348697 0.614019 0.0372842) (23.5 0.852505 1.4118) 384 22773 1 22773 0.261255 5 10105 1 -1 1 8.9e-06 0 (0.420115 -0.0217026 0.0366315) 2650 65.2613 0 (0 0 0) (0 0 0)
5.760000e+02	1 (0 0.042952 0.537854 0.419194) (23.5 0.844869 1.40636) 387 22771 2 22771 0.00368875 5 10137 1 -1 1 8.9e-06 0 (0.420893 -0.0215478 0.0367652) 2650 65.0037 0 (0 0 0) (0 0 0)
5.760000e+02	1 (0 0.173962 0.605525 0.220512) (23.5 0.405779 1.07536) 441 22711 1 22711 0.090082 5 9468 1 -1 1 8.9e-06 0 (0.416408 0.0537382 0.0159358) 2650 65.0901 0 (0 0 0) (0 0 0)
5.760000e+02	1 (0 0.510551 0.355599 0.133851) (23.5 0.833139 1.30262) 408 22769 2 22769 0.250909 5 12186 1 -1 1 4.3e-06 0 (0.422955 7.7578e-05 0.0445507) 2650 63.2509 0 (0 0 0) (0 0 0)
5.760000e+02	1 (0 0.652355 0.159259 0.188386) (23.5 0.447552 1.07327) 440 22712 1 22712 0.326456 5 11610 1 -1 1 4.3e-06 0 (0.416516 0.0558017 0.0180014) 2650 63.3265 0 (0 0 0) (0 0 0)
5.760000e+02	1 (0 0.254895 0.44432 0.300784) (23.5 0.399378 1.14676) 426 22713 1 22713 0.0643895 5 4646 1 -1 1 7.5e-05 0 (0.424938 0.0351173 0.0073516) 2650 70.0644 0 (0 0 0) (0 0 0)
5.760000e+02	1 (0 0.123223 0.269765 0.607012) (23.5 0.95623 1.13539) 192 22853 2 22853 0.869729 5 4792 1 -1 1 7.5e-05 0 (0.403594 0.0123863 0.0382327) 2650 70.8697 0 (0 0 0) (0 0 0)
5.760000e+02	1 (0 0.0708197 0.709376 0.219804) (23.5 0.85647 1.40434) 387 22771 2 22771 0.938669 5 10167 1 -1 1 8.9e-06 0 (0.420436 -0.0199419 0.038107) 2650 65.9387 0 (0 0 0) (0 0 0)
5.760000e+02	1 (0 0.0453358 0.166407 0.788257) (23.5 0.820269 1.1922) 432 22749 2 22749 0.37346 5 11895 1 -1 1 4.3e-06 0 (0.421549 0.0218046 0.0448811) 2650 63.3735 0 (0 0 0) (0 0 0)
5.760000e+02	1 (0 0.517628 0.113346 0.369026) (23.5 0.841724 1.29391) 408 22769 1 22769 0.637852 5 12026 1 -1 1 4.3e-06 0 (0.422514 0.00194681 0.0459902) 2650 63.6379 0 (0 0 0) (0 0 0)
5.760000e+02	1 (0 0.470444 0.298431 0.231126) (23.5 0.82927 1.30554) 408 22769 2 22769 0.504192 5 12217 1 -1 1 4.3e-06 0 (0.423074 -0.000706934 0.0439498) 2650 63.5042 0 (0 0 0) (0 0 0)
5.760000e+02	1 (0 0.535812 0.250418 0.21377) (23.5 0.826045 1.30082) 408 22769 2 22769 0.726491 5 10200 1 -1 1 8.9e-06 0 (0.423163 0.000180339 0.0437855) 2650 65.7265 0 (0 0 0) (0 0 0)
5.760000e+02	1 (0 0.418611 0.385351 0.196039) (23.5 0.308309 1.13958) 425 22710 1 22710 0.917516 5 4179 1 -1 1 7.5e-05 0 (0.422814 0.0332023 0.00109165) 2650 70.9175 0 (0 0 0) (0 0 0)
5.760000e+02	1 (0 0.645657 0.144704 0.209639) (23.5 0.351793 1.15047) 426 22713 2 22713 0.857153 5 4678 1 -1 1 7.5e-05 0 (0.424394 0.0324079 0.0039099) 2650 70.8572 0 (0 0 0) (0 0 0)
5.760000e+02	1 (0 0.121614 0.84128 0.0371063) (23.5 0.407015 1.40124) 393 22735 2 22735 0.87924 5 11323 1 -1 1 4.3e-06 0 (0.422346 -0.0423403 0.00356607) 2650 63.8792 0 (0 0 0) (0 0 0)
5.760000e+02	1 (0 0.1613 0.69595 0.14275) (23.5 0.487013 1.2053) 416 22728 1 22728 0.516761 5 9352 1 -1 1 8.9e-06 0 (0.428472 0.0211355 0.0153333) 2650 65.5168 0 (0 0 0) (0 0 0)
5.760000e+02	1 (0 0.176516 0.487403 0.336081) (23.5 0.566247 1.14919) 428 22741 1 22741 0.669443 5 9639 1 -1 1 8.9e-06 0 (0.425728 0.0375249 0.0216838) 2650 65.6694 0 (0 0 0) (0 0 0)
5.760000e+02	1 (0 0.329035 0.358179 0.312787) (23.5 0.448362 1.1723) 427 22714 2 22714 0.890432 5 9294 1 -1 1 8.9e-06 0 (0.426894 0.0294663 0.0140409) 2650 65.8904 0 (0 0 0) (0 0 0)
5.760000e+02	1 (0 0.382964 0.446655 0.170381) (23.5 0.455491 1.16858) 427 22714 2 22714 0.934003 5 9297 1 -1 1 8.9e-06 0 (0.426717 0.030614 0.0146829) 2650 65.934 0 (0 0 0) (0 0 0)
5.760000e+02	1 (0 0.0157572 0.11002 0.874223) (23.5 0.508858 1.19391) 428 22741 2 22741 0.796659 5 9293 1 -1 1 8.9e-06 0 (0.428384 0.0246328 0.0171104) 2650 65.7967 0 (0 0 0) (0 0 0)
5.760000e+02	1 (0 0.837162 0.0626748 0.100163) (23.5 0.513116 1.20223) 415 22751 1 22751 0.827093 5 9322 1 -1 1 8.9e-06 0 (0.428464 0.0223889 0.0172105) 2650 65.8271 0 (0 0 0) (0 0 0)
5.770000e+02	1 (0 0.116383 0.630474 0.253143) (23.5 0.942031 1.4588) 204 22789 1 22789 0.100082 5 4989 1 -1 1 7.5e-05 0 (0.391827 -0.0110491 0.0210351) 2650 71.1001 0 (0 0 0) (0 0 0)
5.770000e+02	1 (0 0.602673 0.339504 0.0578227) (23.5 0.953246 1.40471) 203 22786 1 22786 0.599829 5 4892 1 -1 1 7.5e-05 0 (0.396218 -0.00907892 0.0354251) 2650 71.5998 0 (0 0 0) (0 0 0)
5.770000e+02	1 (0 0.0876474 0.358201 0.554152) (23.5 0.954433 1.27359) 198 22780 2 22780 0.131596 5 4858 1 -1 1 7.5e-05 0 (0.408793 0.00270052 0.0502828) 2650 71.1316 0 (0 0 0) (0 0 0)
5.770000e+02	1 (0 0.613576 0.118623 0.267802) (23.5 0.953724 1.32036) 198 22780 1 22780 0.660405 5 4891 1 -1 1 7.5e-05 0 (0.408776 -0.00136678 0.0482656) 2650 71.6604 0 (0 0 0) (0 0 0)
5.770000e+02	1 (0 0.176004 0.767716 0.0562798) (23.5 0.944763 1.07304) 191 22850 2 22850 0.225484 5 4727 1 -1 1 7.5e-05 0 (0.386567 0.0151345 0.0290455) 2650 71.2255 0 (0 0 0) (0 0 0)
5.770000e+02	1 (0 0.0550276 0.308183 0.63679) (23.5 0.872516 1.38385) 387 22771 1 22771 0.0340542 5 9976 1 -1 1 8.9e-06 0 (0.419689 -0.0147514 0.0416543) 2650 66.0341 0 (0 0 0) (0 0 0)
5.770000e+02	1 (0 0.0238991 0.270673 0.705428) (23.5 0.83044 1.01633) 174 22830 1 22830 0.464214 5 4349 1 -1 1 7.5e-05 0 (0.343952 0.0323538 0.0187715) 2650 71.4642 0 (0 0 0) (0 0 0)
5.770000e+02	1 (0 0.906822 0.0120754 0.0811023) (23.5 0.876818 1.41538) 385 22774 2 22774 0.596765 5 10136 1 -1 1 8.9e-06 0 (0.417328 -0.0196493 0.0377826) 2650 66.5968 0 (0 0 0) (0 0 0)
5.770000e+02	1 (0 0.231963 0.525044 0.242993) (23.5 0.844509 1.32274) 408 22769 2 22769 0.01512 5 12154 1 -1 1 4.3e-06 0 (0.422551 -0.00404599 0.0441097) 2650 64.0151 0 (0 0 0) (0 0 0)
5.770000e+02	1 (0 0.0962609 0.556413 0.347326) (23.5 0.332908 1.08362) 442 22708 1 22708 0.00941789 5 9278 1 -1 1 8.9e-06 0 (0.416706 0.0446082 0.0117575) 2650 66.0094 0 (0 0 0) (0 0 0)
5.770000e+02	1 (0 0.0502464 0.423941 0.525813) (23.5 0.732247 1.09527) 437 22743 1 22743 0.238882 5 11638 1 -1 1 4.3e-06 0 (0.416733 0.0464801 0.032124) 2650 64.2389 0 (0 0 0) (0 0 0)
5.770000e+02	1 (0 0.134861 0.0911163 0.774023) (23.5 0.815376 1.25758) 411 22767 2 22767 0.103542 5 12249 1 -1 1 4.3e-06 0 (0.423717 0.00822677 0.0435902) 2650 64.1035 0 (0 0 0) (0 0 0)
5.770000e+02	1 (0 0.043131 0.583528 0.373341) (23.5 0.466515 1.1232) 440 22712 2 22712 0.00849354 5 11376 1 -1 1 4.3e-06 0 (0.425096 0.0406775 0.0162265) 2650 64.0085 0 (0 0 0) (0 0 0)
5.770000e+02	1 (0 0.468934 0.471947 0.0591194) (23.5 0.377792 1.44501) 378 22737 2 22737 0.0729496 5 11409 1 -1 1 4.3e-06 0 (0.419619 -0.0543404 0.000263267) 2650 64.0729 0 (0 0 0) (0 0 0)
5.770000e+02	1 (0 0.117575 0.168484 0.713941) (23.5 0.353715 1.11838) 441 22711 2 22711 0.412499 5 9355 1 -1 1 8.9e-06 0 (0.422484 0.0378624 0.0104423) 2650 66.4125 0 (0 0 0) (0 0 0)
5.770000e+02	1 (0 0.0641131 0.713859 0.222028) (23.5 0.476994 1.12183) 440 22712 2 22712 0.0604332 5 11405 1 -1 1 4.3e-06 0 (0.425001 0.0412864 0.0168224) 2650 64.0604 0 (0 0 0) (0 0 0)
5.770000e+02	1 (0 0.441085 0.0025723 0.556343) (23.5 0.419744 1.16457) 427 22714 2 22714 0.280591 5 9323 1 -1 1 8.9e-06 0 (0.427269 0.0289729 0.0118436) 2650 66.2806 0 (0 0 0) (0 0 0)
5.770000e+02	1 (0 0.205705 0.224388 0.569908) (23.5 0.437577 1.18081) 427 22714 2 22714 0.486335 5 9414 1 -1 1 8.9e-06 0 (0.428348 0.0251816 0.0121976) 2650 66.4863 0 (0 0 0) (0 0 0)
5.770000e+02	1 (0 0.737562 0.174618 0.0878198) (23.5 0.514068 1.21394) 415 22751 2 22751 0.097861 5 9382 1 -1 1 8.9e-06 0 (0.429692 0.0179105 0.0159106) 2650 66.0979 0 (0 0 0) (0 0 0)
5.770000e+02	1 (0 0.297218 0.490808 0.211974) (23.5 0.53951 1.31817) 404 22753 2 22753 0.0214823 5 12286 1 -1 1 4.3e-06 0 (0.42809 -0.010935 0.0145235) 2650 64.0215 0 (0 0 0) (0 0 0)
5.770000e+02	1 (0 0.0974809 0.744631 0.157888) (23.5 0.399359 1.46966) 378 22737 2 22737 0.257943 5 11592 1 -1 1 4.3e-06 0 (0.417614 -0.0619294 0.00108798) 2650 64.2579 0 (0 0 0) (0 0 0)
5.770000e+02	1 (0 0.257687 0.270595 0.471718) (23.5 0.95639 1.21379) 197 22783 2 22783 0.77053 5 4857 1 -1 1 7.5e-05 0 (0.40762 0.00724483 0.0482198) 2650 71.7705 0 (0 0 0) (0 0 0)
5.770000e+02	1 (0 0.282076 0.698406 0.0195176) (23.5 0.857464 1.34084) 387 22771 1 22771 0.830376 5 12122 1 -1 1 4.3e-06 0 (0.421908 -0.00731533 0.0446263) 2650 64.8304 0 (0 0 0) (0 0 0)
5.770000e+02	1 (0 0.313368 0.218523 0.468109) (23.5 0.462365 1.0536) 159 22817 1 22817 0.878035 5 9436 1 -1 1 8.9e-06 0 (0.412052 0.0591431 0.0188142) 2650 66.878 0 (0 0 0) (0 0 0)
5.770000e+02	1 (0 0.720802 0.0393085 0.239889) (23.5 0.343334 1.07919) 441 22711 2 22711 0.902748 5 11390 1 -1 1 4.3e-06 0 (0.416358 0.046297 0.012691) 2650 64.9027 0 (0 0 0) (0 0 0)
5.770000e+02	1 (0 0.297017 0.181176 0.521808) (23.5 0.856577 1.30493) 408 22769 1 22769 0.92673 5 11993 1 -1 1 4.3e-06 0 (0.421885 -0.000328552 0.0465051) 2650 64.9267 0 (0 0 0) (0 0 0)
5.770000e+02	1 (0 0.23019 0.171483 0.598326) (23.5 0.353924 1.11106) 441 22711 2 22711 0.747113 5 9385 1 -1 1 8.9e-06 0 (0.421386 0.0395228 0.0109749) 2650 66.7471 0 (0 0 0) (0 0 0)
5.770000e+02	1 (0 0.0477211 0.490504 0.461775) (23.5 0.336633 1.15789) 425 22710 1 22710 0.906314 5 4150 1 -1 1 7.5e-05 0 (0.425188 0.0277783 0.00223273) 2650 71.9063 0 (0 0 0) (0 0 0)
5.770000e+02	1 (0 0.532808 0.120207 0.346985) (23.5 0.377363 1.14995) 426 22713 1 22713 0.920788 5 9295 1 -1 1 8.9e-06 0 (0.425524 0.0309999 0.0101121) 2650 66.9208 0 (0 0 0) (0 0 0)
5.780000e+02	1 (0 0.797594 0.125596 0.0768103) (23.5 0.95801 1.26169) 197 22783 1 22783 0.517099 5 4890 1 -1 1 7.5e-05 0 (0.40639 0.00335078 0.0505181) 2650 72.5171 0 (0 0 0) (0 0 0)
5.780000e+02	1 (0 0.11584 0.637814 0.246346) (23.5 0.942042 1.39166) 203 22786 1 22786 0.17907 5 5082 1 -1 1 7.5e-05 0 (0.405539 -0.00999098 0.0389451) 2650 72.1791 0 (0 0 0) (0 0 0)
5.780000e+02	1 (0 0.371405 0.366383 0.262212) (23.5 0.954036 1.1523) 192 22853 2 22853 0.601135 5 4824 1 -1 1 7.5e-05 0 (0.40255 0.0118329 0.0418942) 2650 72.6011 0 (0 0 0) (0 0 0)
5.780000e+02	1 (0 0.633436 0.338313 0.028251) (23.5 0.917167 1.02386) 178 22846 2 22846 0.986403 5 4535 1 -1 1 7.5e-05 0 (0.343925 0.0130178 0.0191768) 2650 72.9864 0 (0 0 0) (0 0 0)
5.780000e+02	1 (0 0.0274191 0.367831 0.60475) (23.5 0.83699 1.01628) 174 22830 1 22830 0.466933 5 4317 1 -1 1 7.5e-05 0 (0.342762 0.031256 0.0186725) 2650 72.4669 0 (0 0 0) (0 0 0)
5.780000e+02	1 (0 0.213989 0.238445 0.547566) (23.5 0.891241 1.39415) 386 22772 2 22772 0.045831 5 10008 1 -1 1 8.9e-06 0 (0.415478 -0.015029 0.0410887) 2650 67.0458 0 (0 0 0) (0 0 0)
5.780000e+02	1 (0 0.686424 0.204131 0.109445) (23.5 0.895902 1.41637) 385 22774 1 22774 0.427909 5 10104 1 -1 1 8.9e-06 0 (0.412012 -0.0172088 0.0374457) 2650 67.4279 0 (0 0 0) (0 0 0)
5.780000e+02	1 (0 0.606824 0.217161 0.176015) (23.5 0.835628 1.20802) 411 22767 1 22767 0.13173 5 11862 1 -1 1 4.3e-06 0 (0.422418 0.0168186 0.0451573) 2650 65.1317 0 (0 0 0) (0 0 0)
5.780000e+02	1 (0 0.30653 0.453385 0.240086) (23.5 0.855997 1.28462) 408 22769 1 22769 0.267218 5 11960 1 -1 1 4.3e-06 0 (0.421759 0.00272335 0.04679) 2650 65.2672 0 (0 0 0) (0 0 0)
5.780000e+02	1 (0 0.112464 0.780426 0.10711) (23.5 0.86172 1.33133) 408 22769 2 22769 0.104346 5 12058 1 -1 1 4.3e-06 0 (0.421713 -0.00539914 0.045073) 2650 65.1043 0 (0 0 0) (0 0 0)
5.780000e+02	1 (0 0.122995 0.778217 0.0987881) (23.5 0.868168 1.34633) 387 22771 1 22771 0.475939 5 12090 1 -1 1 4.3e-06 0 (0.421 -0.00809652 0.0447278) 2650 65.4759 0 (0 0 0) (0 0 0)
5.780000e+02	1 (0 0.195669 0.182031 0.6223) (23.5 0.863028 1.38288) 387 22771 1 22771 0.363675 5 10198 1 -1 1 8.9e-06 0 (0.419603 -0.0151141 0.040089) 2650 67.3637 0 (0 0 0) (0 0 0)
5.780000e+02	1 (0 0.242951 0.466314 0.290735) (23.5 0.225132 1.1104) 443 22707 2 22707 0.433114 5 4183 1 -1 1 7.5e-05 0 (0.416391 0.0286907 -0.00135484) 2650 72.4331 0 (0 0 0) (0 0 0)
5.780000e+02	1 (0 0.0295514 0.905777 0.0646715) (23.5 0.337917 1.06525) 442 22708 1 22708 0.563779 5 11548 1 -1 1 4.3e-06 0 (0.414568 0.0452219 0.013515) 2650 65.5638 0 (0 0 0) (0 0 0)
5.780000e+02	1 (0 0.359053 0.337708 0.303239) (23.5 0.367056 1.10269) 441 22711 2 22711 0.17474 5 9447 1 -1 1 8.9e-06 0 (0.421013 0.0385087 0.0122063) 2650 67.1747 0 (0 0 0) (0 0 0)
5.780000e+02	1 (0 0.672051 0.204242 0.123707) (23.5 0.366206 1.06908) 441 22711 1 22711 0.195936 5 4421 1 -1 1 7.5e-05 0 (0.415961 0.0459584 0.00975724) 2650 72.1959 0 (0 0 0) (0 0 0)
5.780000e+02	1 (0 0.413105 0.0509139 0.535981) (23.5 0.386823 1.16299) 426 22713 1 22713 0.100678 5 9383 1 -1 1 8.9e-06 0 (0.427149 0.0257174 0.00960765) 2650 67.1007 0 (0 0 0) (0 0 0)
5.780000e+02	1 (0 0.22068 0.504418 0.274902) (23.5 0.540557 1.11166) 439 22739 2 22739 0.259974 5 9671 1 -1 1 8.9e-06 0 (0.425036 0.0422246 0.0194478) 2650 67.26 0 (0 0 0) (0 0 0)
5.780000e+02	1 (0 0.0295424 0.440249 0.530209) (23.5 0.497625 1.16258) 427 22714 1 22714 0.0289875 5 9298 1 -1 1 8.9e-06 0 (0.428957 0.0289461 0.0154278) 2650 67.029 0 (0 0 0) (0 0 0)
5.780000e+02	1 (0 0.154119 0.59661 0.249272) (23.5 0.467539 1.18437) 427 22714 2 22714 0.46861 5 11402 1 -1 1 4.3e-06 0 (0.429748 0.0229522 0.0130353) 2650 65.4686 0 (0 0 0) (0 0 0)
5.780000e+02	1 (0 0.339034 0.254703 0.406263) (23.5 0.553187 1.15403) 428 22741 1 22741 0.316042 5 9767 1 -1 1 8.9e-06 0 (0.4286 0.031796 0.0189284) 2650 67.316 0 (0 0 0) (0 0 0)
5.780000e+02	1 (0 0.132252 0.485 0.382747) (23.5 0.906794 1.39975) 386 22772 2 22772 0.959925 5 10040 1 -1 1 8.9e-06 0 (0.412133 -0.0143801 0.0410464) 2650 67.9599 0 (0 0 0) (0 0 0)
5.780000e+02	1 (0 0.546385 0.4436 0.0100149) (23.5 0.904751 1.40966) 385 22774 1 22774 0.874161 5 10072 1 -1 1 8.9e-06 0 (0.411944 -0.0163115 0.0397716) 2650 67.8742 0 (0 0 0) (0 0 0)
5.780000e+02	1 (0 0.234737 0.077045 0.688218) (23.5 0.881424 1.32248) 409 22770 2 22770 0.569522 5 9878 1 -1 1 8.9e-06 0 (0.4202 -0.00348185 0.047776) 2650 67.5695 0 (0 0 0) (0 0 0)
5.780000e+02	1 (0 0.647111 0.000167285 0.352721) (23.5 0.89867 1.36387) 386 22772 1 22772 0.966262 5 9943 1 -1 1 8.9e-06 0 (0.415394 -0.00859877 0.0446343) 2650 67.9663 0 (0 0 0) (0 0 0)
5.780000e+02	1 (0 0.0802276 0.663755 0.256018) (23.5 0.870985 1.35729) 387 22771 1 22771 0.811067 5 12185 1 -1 1 4.3e-06 0 (0.420373 -0.0100196 0.0439057) 2650 65.8111 0 (0 0 0) (0 0 0)
5.780000e+02	1 (0 0.00870127 0.949102 0.0421969) (23.5 0.805561 1.26666) 412 22756 2 22756 0.54119 5 9987 1 -1 1 8.9e-06 0 (0.425114 0.00581415 0.0412124) 2650 67.5412 0 (0 0 0) (0 0 0)
5.780000e+02	1 (0 0.138783 0.592001 0.269216) (23.5 0.329711 1.14461) 425 22710 1 22710 0.593296 5 9296 1 -1 1 8.9e-06 0 (0.424582 0.0278921 0.00730822) 2650 67.5933 0 (0 0 0) (0 0 0)
5.780000e+02	1 (0 0.887296 0.031387 0.0813165) (23.5 0.342863 1.1338) 426 22713 2 22713 0.562077 5 9302 1 -1 1 8.9e-06 0 (0.424358 0.0308349 0.00883027) 2650 67.5621 0 (0 0 0) (0 0 0)
5.780000e+02	1 (0 0.343421 0.00885976 0.647719) (23.5 0.500712 1.10369) 439 22739 2 22739 0.608956 5 11496 1 -1 1 4.3e-06 0 (0.423744 0.04358 0.0177983) 2650 65.609 0 (0 0 0) (0 0 0)
5.780000e+02	1 (0 0.676961 0.0564819 0.266557) (23.5 0.42411 1.14829) 427 22714 2 22714 0.948837 5 11350 1 -1 1 4.3e-06 0 (0.427228 0.0305561 0.0123228) 2650 65.9488 0 (0 0 0) (0 0 0)
5.780000e+02	1 (0 0.109736 0.0145961 0.875668) (23.5 0.491177 1.18642) 427 22714 1 22714 0.855018 5 11372 1 -1 1 4.3e-06 0 (0.430126 0.0229264 0.0143126) 2650 65.855 0 (0 0 0) (0 0 0)
5.790000e+02	1 (0 0.0543615 0.35014 0.595498) (23.5 0.963607 1.3677) 202 22785 1 22785 0.444863 5 4924 1 -1 1 7.5e-05 0 (0.394296 -0.00491764 0.0416495) 2650 73.4449 0 (0 0 0) (0 0 0)
5.790000e+02	1 (0 0.627335 0.0973419 0.275323) (23.5 0.960378 1.31278) 198 22780 2 22780 0.69356 5 4923 1 -1 1 7.5e-05 0 (0.404045 -0.00108136 0.0486856) 2650 73.6936 0 (0 0 0) (0 0 0)
5.790000e+02	1 (0 0.425208 0.183172 0.39162) (23.5 0.958413 1.22582) 197 22783 2 22783 0.357741 5 4889 1 -1 1 7.5e-05 0 (0.40475 0.00566615 0.0489417) 2650 73.3577 0 (0 0 0) (0 0 0)
5.790000e+02	1 (0 0.472991 0.449869 0.0771407) (23.5 0.909396 1.41412) 385 22774 1 22774 0.483507 5 10135 1 -1 1 8.9e-06 0 (0.409003 -0.0158546 0.0382901) 2650 68.4835 0 (0 0 0) (0 0 0)
5.790000e+02	1 (0 0.345316 0.309255 0.34543) (23.5 0.44734 1.04465) 159 22817 2 22817 0.366774 5 9373 1 -1 1 8.9e-06 0 (0.409639 0.0540335 0.0185968) 2650 68.3668 0 (0 0 0) (0 0 0)
5.790000e+02	1 (0 0.502397 0.400882 0.0967204) (23.5 0.301921 1.06736) 442 22708 1 22708 0.238426 5 11453 1 -1 1 4.3e-06 0 (0.413742 0.0378743 0.0121565) 2650 66.2384 0 (0 0 0) (0 0 0)
5.790000e+02	1 (0 0.796633 0.14468 0.058687) (23.5 0.248985 1.04081) 152 22802 2 22802 0.341499 5 4902 1 -1 1 7.5e-05 0 (0.400934 0.0397792 0.0091026) 2650 73.3415 0 (0 0 0) (0 0 0)
5.790000e+02	1 (0 0.903872 0.0923685 0.003759) (23.5 0.271211 1.12634) 425 22710 1 22710 0.0576256 5 9325 1 -1 1 8.9e-06 0 (0.421364 0.0257522 0.00589615) 2650 68.0576 0 (0 0 0) (0 0 0)
5.790000e+02	1 (0 0.318555 0.62137 0.0600753) (23.5 0.781112 1.10553) 436 22744 2 22744 0.18845 5 9531 1 -1 1 8.9e-06 0 (0.418868 0.0387364 0.0354888) 2650 68.1884 0 (0 0 0) (0 0 0)
5.790000e+02	1 (0 0.836734 0.0976929 0.0655729) (23.5 0.815809 1.27908) 408 22769 2 22769 0.289735 5 10116 1 -1 1 8.9e-06 0 (0.425303 0.00295934 0.0407251) 2650 68.2897 0 (0 0 0) (0 0 0)
5.790000e+02	1 (0 0.600102 0.0456613 0.354237) (23.5 0.294377 1.1505) 425 22710 1 22710 0.406091 5 9353 1 -1 1 8.9e-06 0 (0.423751 0.0221592 0.00535317) 2650 68.4061 0 (0 0 0) (0 0 0)
5.790000e+02	1 (0 0.543026 0.14852 0.308454) (23.5 0.431541 1.09072) 440 22712 2 22712 0.370452 5 11465 1 -1 1 4.3e-06 0 (0.421802 0.0404665 0.015248) 2650 66.3705 0 (0 0 0) (0 0 0)
5.790000e+02	1 (0 0.198379 0.278667 0.522954) (23.5 0.362421 1.11313) 441 22711 2 22711 0.244804 5 9269 1 -1 1 8.9e-06 0 (0.422989 0.0324714 0.0111499) 2650 68.2448 0 (0 0 0) (0 0 0)
5.790000e+02	1 (0 0.313543 0.309304 0.377153) (23.5 0.394725 1.15203) 426 22713 1 22713 0.0574411 5 11373 1 -1 1 4.3e-06 0 (0.427316 0.0257781 0.0101688) 2650 66.0574 0 (0 0 0) (0 0 0)
5.790000e+02	1 (0 0.549671 0.080066 0.370263) (23.5 0.45575 1.36566) 392 22736 1 22736 0.416417 5 11293 1 -1 1 4.3e-06 0 (0.426854 -0.0260014 0.00480305) 2650 66.4164 0 (0 0 0) (0 0 0)
5.790000e+02	1 (0 0.197173 0.531623 0.271204) (23.5 0.484147 1.14471) 427 22714 1 22714 0.049331 5 9299 1 -1 1 8.9e-06 0 (0.428827 0.0300834 0.0145466) 2650 68.0493 0 (0 0 0) (0 0 0)
5.790000e+02	1 (0 0.217961 0.168275 0.613764) (23.5 0.482475 1.16835) 427 22714 1 22714 0.271533 5 11344 1 -1 1 4.3e-06 0 (0.429965 0.0247061 0.0135625) 2650 66.2715 0 (0 0 0) (0 0 0)
5.790000e+02	1 (0 0.00990812 0.726616 0.263476) (23.5 0.477991 1.19432) 427 22714 2 22714 0.248568 5 11463 1 -1 1 4.3e-06 0 (0.431246 0.0189844 0.0120453) 2650 66.2486 0 (0 0 0) (0 0 0)
5.790000e+02	1 (0 0.656872 0.259076 0.0840517) (23.5 0.520873 1.21977) 415 22751 2 22751 0.14256 5 11284 1 -1 1 4.3e-06 0 (0.431706 0.0137336 0.0138018) 2650 66.1426 0 (0 0 0) (0 0 0)
5.790000e+02	1 (0 0.208248 0.653645 0.138107) (23.5 0.483234 1.20497) 416 22728 1 22728 0.40637 5 9670 1 -1 1 8.9e-06 0 (0.431395 0.0166435 0.0119008) 2650 68.4064 0 (0 0 0) (0 0 0)
5.790000e+02	1 (0 0.0295384 0.234514 0.735948) (23.5 0.49762 1.32057) 403 22730 1 22730 0.359785 5 9508 1 -1 1 8.9e-06 0 (0.429876 -0.0120096 0.0089105) 2650 68.3598 0 (0 0 0) (0 0 0)
5.790000e+02	1 (0 0.304374 0.602249 0.093377) (23.5 0.468027 1.45591) 379 22738 2 22738 0.606735 5 11624 1 -1 1 4.3e-06 0 (0.418385 -0.0541798 0.0026504) 2650 66.6067 0 (0 0 0) (0 0 0)
5.790000e+02	1 (0 0.462879 0.37686 0.160261) (23.5 0.91004 1.41968) 385 22774 1 22774 0.926975 5 10166 1 -1 1 8.9e-06 0 (0.407415 -0.0157309 0.036652) 2650 68.927 0 (0 0 0) (0 0 0)
5.790000e+02	1 (0 0.712045 0.179383 0.108572) (23.5 0.143402 1.06852) 444 22704 1 22704 0.949543 5 4774 1 -1 1 7.5e-05 0 (0.399622 0.0240814 -0.000830371) 2650 73.9495 0 (0 0 0) (0 0 0)
5.790000e+02	1 (0 0.136185 0.695457 0.168357) (23.5 0.867508 1.27945) 408 22769 1 22769 0.674091 5 11927 1 -1 1 4.3e-06 0 (0.42114 0.00312335 0.0477541) 2650 66.6741 0 (0 0 0) (0 0 0)
5.790000e+02	1 (0 0.507579 0.251024 0.241396) (23.5 0.892167 1.37366) 386 22772 2 22772 0.789303 5 12153 1 -1 1 4.3e-06 0 (0.415768 -0.0112817 0.0428933) 2650 66.7893 0 (0 0 0) (0 0 0)
5.790000e+02	1 (0 0.0646058 0.661794 0.2736) (23.5 0.87189 1.14556) 432 22749 1 22749 0.909187 5 5118 1 -1 1 7.5e-05 0 (0.415207 0.0239115 0.0407782) 2650 73.9092 0 (0 0 0) (0 0 0)
5.790000e+02	1 (0 0.269159 0.320684 0.410157) (23.5 0.244192 1.15445) 424 22709 1 22709 0.735328 5 4710 1 -1 1 7.5e-05 0 (0.421753 0.0194552 -0.00258343) 2650 73.7353 0 (0 0 0) (0 0 0)
5.790000e+02	1 (0 0.131282 0.57793 0.290787) (23.5 0.254228 1.14618) 424 22709 1 22709 0.868414 5 9324 1 -1 1 8.9e-06 0 (0.421777 0.0214161 0.00332269) 2650 68.8684 0 (0 0 0) (0 0 0)
5.790000e+02	1 (0 0.472777 0.101474 0.42575) (23.5 0.348319 1.0953) 441 22711 2 22711 0.701603 5 11375 1 -1 1 4.3e-06 0 (0.419907 0.0354097 0.011917) 2650 66.7016 0 (0 0 0) (0 0 0)
5.790000e+02	1 (0 0.2827 0.567728 0.149572) (23.5 0.318453 1.20584) 418 22724 1 22724 0.828349 5 4325 1 -1 1 7.5e-05 0 (0.427609 0.0128285 -0.00197567) 2650 73.8283 0 (0 0 0) (0 0 0)
5.790000e+02	1 (0 0.406894 0.200422 0.392684) (23.5 0.309157 1.15314) 425 22710 1 22710 0.642489 5 9446 1 -1 1 8.9e-06 0 (0.424518 0.0223347 0.00589029) 2650 68.6425 0 (0 0 0) (0 0 0)
5.790000e+02	1 (0 0.650099 0.312012 0.0378898) (23.5 0.287645 1.15021) 425 22710 2 22710 0.655209 5 4149 1 -1 1 7.5e-05 0 (0.423466 0.0219733 0.000412958) 2650 73.6552 0 (0 0 0) (0 0 0)
5.790000e+02	1 (0 0.932539 0.0309044 0.0365563) (23.5 0.813798 1.26993) 408 22769 1 22769 0.845507 5 12067 1 -1 1 4.3e-06 0 (0.425525 0.00463872 0.040977) 2650 66.8455 0 (0 0 0) (0 0 0)
5.790000e+02	1 (0 0.397074 0.303484 0.299442) (23.5 0.364336 1.10022) 441 22711 2 22711 0.662225 5 11320 1 -1 1 4.3e-06 0 (0.421139 0.0350975 0.0122277) 2650 66.6622 0 (0 0 0) (0 0 0)
5.790000e+02	1 (0 0.448201 0.422854 0.128945) (23.5 0.533999 1.09688) 439 22739 2 22739 0.415402 5 9735 1 -1 1 8.9e-06 0 (0.424154 0.0424804 0.0188859) 2650 68.4154 0 (0 0 0) (0 0 0)
5.790000e+02	1 (0 0.919462 0.0322971 0.0482413) (23.5 0.266299 1.13164) 425 22710 2 22710 0.84084 5 4934 1 -1 1 7.5e-05 0 (0.421482 0.0245813 0.000649252) 2650 73.8408 0 (0 0 0) (0 0 0)
5.790000e+02	1 (0 0.659233 0.237858 0.102909) (23.5 0.447007 1.41658) 379 22738 1 22738 0.94626 5 11354 1 -1 1 4.3e-06 0 (0.422814 -0.0423985 0.00303873) 2650 66.9463 0 (0 0 0) (0 0 0)
5.790000e+02	1 (0 0.157211 0.497084 0.345705) (23.5 0.487361 1.0835) 440 22712 1 22712 0.98963 5 9703 1 -1 1 8.9e-06 0 (0.42177 0.0444067 0.0174502) 2650 68.9896 0 (0 0 0) (0 0 0)
5.790000e+02	1 (0 0.549375 0.418823 0.0318018) (23.5 0.373517 1.1571) 426 22713 2 22713 0.824566 5 9638 1 -1 1 8.9e-06 0 (0.426933 0.0238771 0.00891569) 2650 68.8246 0 (0 0 0) (0 0 0)
5.790000e+02	1 (0 0.628177 0.144587 0.227236) (23.5 0.449493 1.14168) 427 22714 1 22714 0.73297 5 9268 1 -1 1 8.9e-06 0 (0.42803 0.0296821 0.0132142) 2650 68.733 0 (0 0 0) (0 0 0)
5.790000e+02	1 (0 0.060134 0.826194 0.113672) (23.5 0.486013 1.19085) 427 22714 2 22714 0.451655 5 11432 1 -1 1 4.3e-06 0 (0.431179 0.0198636 0.0126751) 2650 66.4517 0 (0 0 0) (0 0 0)
5.790000e+02	1 (0 0.285337 0.100104 0.614558) (23.5 0.508058 1.31903) 404 22753 2 22753 0.88463 5 9540 1 -1 1 8.9e-06 0 (0.429943 -0.0114502 0.00965643) 2650 68.8846 0 (0 0 0) (0 0 0)
5.790000e+02	1 (0 0.241793 0.097299 0.660908) (23.5 0.507832 1.32219) 404 22753 2 22753 0.968153 5 9572 1 -1 1 8.9e-06 0 (0.429828 -0.0123184 0.00954378) 2650 68.9682 0 (0 0 0) (0 0 0)
5.800000e+02	1 (0 0.684356 0.177422 0.138222) (23.5 0.955301 1.18575) 192 22853 1 22853 0.150707 5 4856 1 -1 1 7.5e-05 0 (0.403469 0.00863022 0.0465125) 2650 74.1507 0 (0 0 0) (0 0 0)
5.800000e+02	1 (0 0.382866 0.293767 0.323367) (23.5 0.955888 1.29504) 198 22780 2 22780 0.977295 5 5081 1 -1 1 7.5e-05 0 (0.404949 0.000435064 0.0490583) 2650 74.9773 0 (0 0 0) (0 0 0)
5.800000e+02	1 (0 0.102944 0.525549 0.371507) (23.5 0.950355 1.06807) 191 22850 2 22850 0.34476 5 4759 1 -1 1 7.5e-05 0 (0.379386 0.0136433 0.028063) 2650 74.3448 0 (0 0 0) (0 0 0)
5.800000e+02	1 (0 0.360942 0.296737 0.342321) (23.5 0.916716 1.36314) 386 22772 1 22772 0.111949 5 9975 1 -1 1 8.9e-06 0 (0.412523 -0.00823745 0.0453831) 2650 69.1119 0 (0 0 0) (0 0 0)
5.800000e+02	1 (0 0.683324 0.163675 0.153) (23.5 0.89644 1.35001) 386 22772 1 22772 0.283053 5 12025 1 -1 1 4.3e-06 0 (0.416913 -0.00744168 0.0454006) 2650 67.2831 0 (0 0 0) (0 0 0)
5.800000e+02	1 (0 0.0849416 0.631003 0.284055) (23.5 0.851626 1.33336) 408 22769 2 22769 0.00756756 5 9731 1 -1 1 8.9e-06 0 (0.422652 -0.00678856 0.0417552) 2650 69.0076 0 (0 0 0) (0 0 0)
5.800000e+02	1 (0 0.390586 0.533825 0.0755891) (23.5 0.850114 1.34478) 387 22771 1 22771 0.0592642 5 9763 1 -1 1 8.9e-06 0 (0.42228 -0.0090236 0.0406999) 2650 69.0593 0 (0 0 0) (0 0 0)
5.800000e+02	1 (0 0.242674 0.527218 0.230108) (23.5 0.229287 1.17844) 424 22709 2 22709 0.273907 5 4391 1 -1 1 7.5e-05 0 (0.422093 0.0127842 -0.00384147) 2650 74.2739 0 (0 0 0) (0 0 0)
5.800000e+02	1 (0 0.170966 0.276475 0.552559) (23.5 0.28473 1.18327) 425 22710 2 22710 0.0525913 5 4582 1 -1 1 7.5e-05 0 (0.425195 0.0140001 -0.00157912) 2650 74.0526 0 (0 0 0) (0 0 0)
5.800000e+02	1 (0 0.691385 0.17701 0.131605) (23.5 0.213714 1.13533) 424 22709 1 22709 0.371496 5 9354 1 -1 1 8.9e-06 0 (0.41862 0.0182332 0.00357168) 2650 69.3715 0 (0 0 0) (0 0 0)
5.800000e+02	1 (0 0.50074 0.0379308 0.461329) (23.5 0.842843 1.30056) 408 22769 1 22769 0.187185 5 9699 1 -1 1 8.9e-06 0 (0.423928 -0.000824373 0.0421334) 2650 69.1872 0 (0 0 0) (0 0 0)
5.800000e+02	1 (0 0.219197 0.144588 0.636214) (23.5 0.291556 1.05588) 153 22811 1 22811 0.105254 5 4180 1 -1 1 7.5e-05 0 (0.410387 0.0353258 0.00882585) 2650 74.1053 0 (0 0 0) (0 0 0)
5.800000e+02	1 (0 0.296191 0.487666 0.216142) (23.5 0.317675 1.14095) 425 22710 1 22710 0.174301 5 11403 1 -1 1 4.3e-06 0 (0.424261 0.0218384 0.00760362) 2650 67.1743 0 (0 0 0) (0 0 0)
5.800000e+02	1 (0 0.626599 0.00235846 0.371043) (23.5 0.340431 1.08531) 441 22711 2 22711 0.527314 5 11434 1 -1 1 4.3e-06 0 (0.418695 0.0326473 0.0124934) 2650 67.5273 0 (0 0 0) (0 0 0)
5.800000e+02	1 (0 0.0819738 0.300146 0.61788) (23.5 0.286842 1.12074) 442 22708 2 22708 0.507734 5 11351 1 -1 1 4.3e-06 0 (0.421251 0.0237847 0.00798948) 2650 67.5077 0 (0 0 0) (0 0 0)
5.800000e+02	1 (0 0.15111 0.594753 0.254137) (23.5 0.328771 1.14357) 425 22710 1 22710 0.237767 5 11433 1 -1 1 4.3e-06 0 (0.424912 0.021888 0.00781622) 2650 67.2378 0 (0 0 0) (0 0 0)
5.800000e+02	1 (0 0.734829 0.231797 0.0333747) (23.5 0.361398 1.12832) 426 22713 1 22713 0.145569 5 11319 1 -1 1 4.3e-06 0 (0.42536 0.0257727 0.0100455) 2650 67.1456 0 (0 0 0) (0 0 0)
5.800000e+02	1 (0 0.439525 0.522941 0.0375347) (23.5 0.464617 1.34236) 392 22736 1 22736 0.440784 5 11292 1 -1 1 4.3e-06 0 (0.429361 -0.0173413 0.00476516) 2650 67.4408 0 (0 0 0) (0 0 0)
5.800000e+02	1 (0 0.660333 0.234146 0.105521) (23.5 0.358893 1.14945) 426 22713 2 22713 0.295923 5 11495 1 -1 1 4.3e-06 0 (0.426347 0.0218715 0.00861376) 2650 67.2959 0 (0 0 0) (0 0 0)
5.800000e+02	1 (0 0.188812 0.415913 0.395275) (23.5 0.927554 1.36681) 386 22772 1 22772 0.921433 5 10007 1 -1 1 8.9e-06 0 (0.410638 -0.00827943 0.0458949) 2650 69.9214 0 (0 0 0) (0 0 0)
5.800000e+02	1 (0 0.0174789 0.108383 0.874138) (23.5 0.883556 1.26606) 410 22768 2 22768 0.557898 5 9749 1 -1 1 8.9e-06 0 (0.419727 0.00466828 0.049303) 2650 69.5579 0 (0 0 0) (0 0 0)
5.800000e+02	1 (0 0.125905 0.0401637 0.833931) (23.5 0.79946 1.11549) 436 22744 1 22744 0.511688 5 11606 1 -1 1 4.3e-06 0 (0.421142 0.0340076 0.0366387) 2650 67.5117 0 (0 0 0) (0 0 0)
5.800000e+02	1 (0 0.110598 0.379588 0.509814) (23.5 0.218882 1.11903) 443 22707 2 22707 0.620503 5 9415 1 -1 1 8.9e-06 0 (0.417161 0.020678 0.00519009) 2650 69.6205 0 (0 0 0) (0 0 0)
5.800000e+02	1 (0 0.305834 0.308608 0.385557) (23.5 0.241545 1.15276) 424 22709 1 22709 0.923496 5 9478 1 -1 1 8.9e-06 0 (0.421242 0.0169213 0.00349636) 2650 69.9235 0 (0 0 0) (0 0 0)
5.800000e+02	1 (0 0.188782 0.580008 0.23121) (23.5 0.848209 1.32585) 408 22769 2 22769 0.92225 5 11939 1 -1 1 4.3e-06 0 (0.42305 -0.00546104 0.0416958) 2650 67.9222 0 (0 0 0) (0 0 0)
5.800000e+02	1 (0 0.588098 0.131132 0.28077) (23.5 0.430143 1.08779) 440 22712 2 22712 0.751019 5 9236 1 -1 1 8.9e-06 0 (0.42227 0.0368175 0.014873) 2650 69.751 0 (0 0 0) (0 0 0)
5.800000e+02	1 (0 0.856598 0.0577886 0.0856136) (23.5 0.424234 1.13589) 427 22714 2 22714 0.56009 5 11318 1 -1 1 4.3e-06 0 (0.427936 0.0268638 0.0117416) 2650 67.5601 0 (0 0 0) (0 0 0)
5.800000e+02	1 (0 0.595637 0.0139364 0.390427) (23.5 0.612524 1.15295) 429 22742 1 22742 0.666169 5 10237 1 -1 1 8.9e-06 0 (0.431017 0.0277095 0.0202648) 2650 69.6662 0 (0 0 0) (0 0 0)
5.800000e+02	1 (0 0.55219 0.0149038 0.432907) (23.5 0.501199 1.29966) 404 22753 2 22753 0.826009 5 11428 1 -1 1 4.3e-06 0 (0.431301 -0.00624235 0.00832594) 2650 67.826 0 (0 0 0) (0 0 0)
