# Time         currentProc " (coordinates0 coordinates1 coordinates2 coordinates3) (position0 position1 position2) celli tetFacei tetPti facei stepFraction origProc origId active typeId nParticle d dTarget (U0 U1 U2) rho age tTurb (UTurb0 UTurb1 UTurb2) (UCorrect0 UCorrect1 UCorrect2)"
8.940000e+02	1 (0 0.0761521 0.528143 0.395705) (23.5 0.0160578 1.29605) 123 22833 1 22833 0.435281 5 11539 1 -1 1 4.3e-06 0 (0.35543 0.000440847 0.0347205) 2650 381.435 0 (0 0 0) (0 0 0)
