# Time         currentProc " (coordinates0 coordinates1 coordinates2 coordinates3) (position0 position1 position2) celli tetFacei tetPti facei stepFraction origProc origId active typeId nParticle d dTarget (U0 U1 U2) rho age tTurb (UTurb0 UTurb1 UTurb2) (UCorrect0 UCorrect1 UCorrect2)"
8.930000e+02	5 (0 0.130165 0.785024 0.0848107) (23.5 0.0680313 1.0342) 366 33082 2 33082 0.124136 0 6306 1 -1 1.00001 3.3e-06 0 (0.419053 -0.0323672 0.201759) 2650 379.124 0 (0 0 0) (0 0 0)
8.940000e+02	5 (0 0.819478 0.153697 0.0268254) (23.5 0.820704 1.41111) 674 33010 1 33010 0.562347 0 4306 1 -1 1 1.25e-05 0 (0.533634 -0.0302685 0.0594594) 2650 384.562 0 (0 0 0) (0 0 0)
8.950000e+02	5 (0 0.11521 0.0303713 0.854419) (23.5 0.877839 1.46793) 803 33011 2 33011 0.940599 0 3325 1 -1 1 3.26e-05 0 (0.533101 -0.0237324 0.0511451) 2650 387.941 0 (0 0 0) (0 0 0)
