# Time         currentProc " (coordinates0 coordinates1 coordinates2 coordinates3) (position0 position1 position2) celli tetFacei tetPti facei stepFraction origProc origId active typeId nParticle d dTarget (U0 U1 U2) rho age tTurb (UTurb0 UTurb1 UTurb2) (UCorrect0 UCorrect1 UCorrect2)"
7.140000e+02	1 (0 0.86933 0.0386644 0.0920056) (23.5 0.590755 1.41586) 381 22762 1 22762 0.281823 5 11637 1 -1 1 4.3e-06 0 (0.42373 -0.0258021 0.0093804) 2650 201.282 0 (0 0 0) (0 0 0)
7.140000e+02	1 (0 0.347156 0.650139 0.00270413) (23.5 0.338783 1.51783) 370 22854 1 22854 0.749883 5 12076 1 -1 1 4.3e-06 0 (0.417195 -0.0394014 -0.000601188) 2650 201.75 0 (0 0 0) (0 0 0)
7.150000e+02	1 (0 0.599021 0.119994 0.280985) (23.5 0.0679199 1.22435) 421 22715 2 22715 0.205312 5 5069 1 -1 1 7.5e-05 0 (0.405002 0.00240874 -0.0108269) 2650 209.205 0 (0 0 0) (0 0 0)
