# Time         currentProc " (coordinates0 coordinates1 coordinates2 coordinates3) (position0 position1 position2) celli tetFacei tetPti facei stepFraction origProc origId active typeId nParticle d dTarget (U0 U1 U2) rho age tTurb (UTurb0 UTurb1 UTurb2) (UCorrect0 UCorrect1 UCorrect2)"
1.081000e+03	7 (0 0.999184 0.000315426 0.000500179) (23.5 0.999986 0.461764) 225 35554 2 35554 0.0978026 0 4395 1 -1 1 7.5e-05 0 (0.0343353 0.00492977 -0.00782537) 2650 575.098 0 (0 0 0) (0 0 0)
1.082000e+03	7 (0 0.365356 0.44417 0.190474) (23.5 0.693502 0.572489) 590 35351 2 35351 0.669004 0 5180 1 -1 1.00002 5.3e-05 0 (0.125793 -0.0223351 -0.046957) 2650 575.669 0 (0 0 0) (0 0 0)
1.082000e+03	7 (0 0.0730992 0.812534 0.114366) (23.5 0.334367 0.759889) 554 35298 1 35298 0.00371191 0 8010 1 -1 1 2.12e-05 0 (0.209635 -0.00649833 -0.0419901) 2650 573.004 0 (0 0 0) (0 0 0)
1.084000e+03	7 (0 0.210731 0.721813 0.0674563) (23.5 0.720769 0.838274) 542 35371 1 35371 0.643273 0 12302 1 -1 1 3.3e-06 0 (0.18144 0.00562865 -0.0403375) 2650 570.643 0 (0 0 0) (0 0 0)
1.084000e+03	7 (0 0.0155982 0.958688 0.0257135) (23.5 0.338792 0.752608) 554 35298 1 35298 0.366821 0 13638 1 -1 1 1.3e-06 0 (0.200903 0.00341691 -0.0359923) 2650 569.367 0 (0 0 0) (0 0 0)
1.084000e+03	7 (0 0.213527 0.383432 0.403041) (23.5 0.611189 0.982765) 534 35370 2 35370 0.828933 0 9060 1 -1 1 1.25e-05 0 (0.233346 0.00252536 -0.0390054) 2650 574.829 0 (0 0 0) (0 0 0)
1.085000e+03	7 (0 0.275518 0.141598 0.582884) (23.5 0.0542468 0.641916) 170 35457 1 35457 0.0930129 0 10285 1 -1 1 6.4e-06 0 (0.147377 0.00238971 -0.0319745) 2650 573.093 0 (0 0 0) (0 0 0)
1.085000e+03	7 (0 0.597727 0.219766 0.182506) (23.5 0.0739489 1.03471) 526 35311 2 35311 0.311236 0 10304 1 -1 1 6.4e-06 0 (0.237281 -0.00420849 -0.0291503) 2650 573.311 0 (0 0 0) (0 0 0)
