# Time         currentProc " (coordinates0 coordinates1 coordinates2 coordinates3) (position0 position1 position2) celli tetFacei tetPti facei stepFraction origProc origId active typeId nParticle d dTarget (U0 U1 U2) rho age tTurb (UTurb0 UTurb1 UTurb2) (UCorrect0 UCorrect1 UCorrect2)"
7.810000e+02	5 (0 0.36035 0.630203 0.00944642) (23.5 0.631364 1.26782) 560 32995 1 32995 0.424441 0 4742 1 -1 1 8.9e-06 0 (0.520679 -0.0129047 0.0777909) 2650 270.424 0 (0 0 0) (0 0 0)
7.820000e+02	5 (0 0.335692 0.444871 0.219437) (23.5 0.992263 1.21882) 1843 33061 2 33061 0.252805 0 6211 1 -1 1.00001 3.3e-06 0 (0.389388 -0.00789983 0.00882184) 2650 268.253 0 (0 0 0) (0 0 0)
7.820000e+02	5 (0 0.994076 0.000506526 0.00541773) (23.5 0.999908 1.0001) 2996 33099 1 33099 0.578982 0 1704 1 -1 1 0.00011 0 (0.20319 0.0112739 0.0837301) 2650 277.579 0 (0 0 0) (0 0 0)
7.820000e+02	5 (0 0.877927 0.0667785 0.0552949) (23.5 0.505376 1.13488) 678 32980 2 32980 0.0984754 0 2322 1 -1 1 7.5e-05 0 (0.507115 -0.073388 0.141202) 2650 276.098 0 (0 0 0) (0 0 0)
7.830000e+02	5 (0 0.475984 0.0604475 0.463569) (23.5 0.699816 1.37203) 559 33000 1 33000 0.971931 0 1540 1 -1 1 0.00011 0 (0.526865 0.0524439 0.0287564) 2650 278.972 0 (0 0 0) (0 0 0)
7.840000e+02	5 (0 0.791652 0.00138942 0.206959) (23.5 0.483206 1.00002) 1111 33018 2 33018 0.222577 0 3031 1 -1 1 3.26e-05 0 (0.24536 -0.0562186 0.108539) 2650 276.223 0 (0 0 0) (0 0 0)
7.850000e+02	5 (0 0.0858941 0.062233 0.851873) (23.5 0.933924 1.39828) 949 33009 1 33009 0.016878 0 4806 1 -1 1 8.9e-06 0 (0.541601 0.0279325 -0.0147932) 2650 274.017 0 (0 0 0) (0 0 0)
7.850000e+02	5 (0 0.200297 0.487112 0.312591) (23.5 0.110708 1.28974) 80 32958 1 32958 0.173576 0 5003 1 -1 1 6.4e-06 0 (0.527135 -0.00297583 0.185687) 2650 273.174 0 (0 0 0) (0 0 0)
