# Time         currentProc " (coordinates0 coordinates1 coordinates2 coordinates3) (position0 position1 position2) celli tetFacei tetPti facei stepFraction origProc origId active typeId nParticle d dTarget (U0 U1 U2) rho age tTurb (UTurb0 UTurb1 UTurb2) (UCorrect0 UCorrect1 UCorrect2)"
9.520000e+02	5 (0 0.178091 0.624638 0.197271) (23.5 0.135702 1.51588) 30 33034 2 33034 0.575606 0 6867 1 -1 1 1.3e-06 0 (0.559125 0.0104955 0.0111512) 2650 437.576 0 (0 0 0) (0 0 0)
9.520000e+02	5 (0 0.547422 0.208472 0.244106) (23.5 0.436252 1.22774) 454 32957 2 32957 0.83722 0 6480 1 -1 1.00001 3.3e-06 0 (0.519993 -0.00639946 0.11267) 2650 438.837 0 (0 0 0) (0 0 0)
9.530000e+02	5 (0 0.765535 0.0468998 0.187566) (23.5 0.208061 1.35264) 114 32966 1 32966 0.762049 0 5807 1 -1 1 4.3e-06 0 (0.54178 0.0178816 0.0733501) 2650 440.762 0 (0 0 0) (0 0 0)
9.540000e+02	5 (0 0.212302 0.770904 0.0167934) (23.5 0.0553381 1.11358) 162 33080 2 33080 0.509145 0 6489 1 -1 1.00001 3.3e-06 0 (0.451883 0.0406787 0.198317) 2650 440.509 0 (0 0 0) (0 0 0)
9.550000e+02	5 (0 0.789062 0.0392453 0.171692) (23.5 0.516993 1.20752) 561 32982 1 32982 0.650959 0 5175 1 -1 1 6.4e-06 0 (0.518541 -0.00308637 0.122892) 2650 443.651 0 (0 0 0) (0 0 0)
