# Time         currentProc " (coordinates0 coordinates1 coordinates2 coordinates3) (position0 position1 position2) celli tetFacei tetPti facei stepFraction origProc origId active typeId nParticle d dTarget (U0 U1 U2) rho age tTurb (UTurb0 UTurb1 UTurb2) (UCorrect0 UCorrect1 UCorrect2)"
9.420000e+02	5 (0 0.63025 0.112854 0.256896) (23.5 0.744817 1.22187) 951 32987 2 32987 0.779969 0 2662 1 -1 1 5.3e-05 0 (0.514885 -9.60287e-05 0.0928471) 2650 435.78 0 (0 0 0) (0 0 0)
9.440000e+02	5 (0 0.0792232 0.766684 0.154093) (23.5 0.860994 1.26157) 1106 32992 2 32992 0.24898 0 2673 1 -1 1 5.3e-05 0 (0.519226 -0.0182242 0.113518) 2650 437.249 0 (0 0 0) (0 0 0)
9.450000e+02	5 (0 0.68562 0.226281 0.0880992) (23.5 0.804428 1.02434) 1648 33047 1 33047 0.0793481 0 2712 1 -1 1 5.3e-05 0 (0.451084 0.0101652 0.154219) 2650 438.079 0 (0 0 0) (0 0 0)
9.450000e+02	5 (0 0.108448 0.66093 0.230622) (23.5 0.131004 1.5182) 30 33034 2 33034 0.273629 0 6388 1 -1 1.00001 3.3e-06 0 (0.560438 -0.00173322 0.00679984) 2650 431.274 0 (0 0 0) (0 0 0)
