# Time         currentProc " (coordinates0 coordinates1 coordinates2 coordinates3) (position0 position1 position2) celli tetFacei tetPti facei stepFraction origProc origId active typeId nParticle d dTarget (U0 U1 U2) rho age tTurb (UTurb0 UTurb1 UTurb2) (UCorrect0 UCorrect1 UCorrect2)"
9.410000e+02	1 (0 0.107296 0.145305 0.747399) (23.5 0.818844 1.33186) 408 22769 2 22769 0.878435 5 9376 1 -1 1 8.9e-06 0 (0.419125 -0.000896054 0.0078704) 2650 430.878 0 (0 0 0) (0 0 0)
