# Time         currentProc " (coordinates0 coordinates1 coordinates2 coordinates3) (position0 position1 position2) celli tetFacei tetPti facei stepFraction origProc origId active typeId nParticle d dTarget (U0 U1 U2) rho age tTurb (UTurb0 UTurb1 UTurb2) (UCorrect0 UCorrect1 UCorrect2)"
9.060000e+02	5 (0 0.237675 0.182592 0.579733) (23.5 0.820969 1.39271) 804 33008 2 33008 0.00355638 0 2500 1 -1 1 5.3e-05 0 (0.522725 -0.0284 0.0643465) 2650 399.004 0 (0 0 0) (0 0 0)
9.080000e+02	5 (0 0.000470049 0.613604 0.385926) (23.5 0.16527 1.12695) 285 32941 2 32941 0.803405 0 4990 1 -1 1 8.9e-06 0 (0.499331 -0.016276 0.116699) 2650 397.803 0 (0 0 0) (0 0 0)
9.080000e+02	5 (0 0.287186 0.157469 0.555345) (23.5 0.318042 1.23518) 283 32953 1 32953 0.687737 0 3995 1 -1 1 2.12e-05 0 (0.529181 -0.0111643 0.0892034) 2650 399.688 0 (0 0 0) (0 0 0)
9.090000e+02	5 (0 0.119056 0.170209 0.710734) (23.5 0.979191 1.48407) 947 33109 2 33109 0.678393 0 3499 1 -1 1 3.26e-05 0 (0.488705 -0.00785862 0.043128) 2650 401.678 0 (0 0 0) (0 0 0)
9.090000e+02	5 (0 0.134888 0.303383 0.561729) (23.5 0.725844 1.09826) 1108 32978 1 32978 0.717588 0 4983 1 -1 1 8.9e-06 0 (0.46041 0.027697 0.153546) 2650 398.718 0 (0 0 0) (0 0 0)
