# Time         currentProc " (coordinates0 coordinates1 coordinates2 coordinates3) (position0 position1 position2) celli tetFacei tetPti facei stepFraction origProc origId active typeId nParticle d dTarget (U0 U1 U2) rho age tTurb (UTurb0 UTurb1 UTurb2) (UCorrect0 UCorrect1 UCorrect2)"
9.070000e+02	1 (0 0.213088 0.164031 0.622881) (23.5 0.926199 1.31219) 409 22770 1 22770 0.0449421 5 9454 1 -1 1 8.9e-06 0 (0.397013 -0.00550727 0.0203414) 2650 396.045 0 (0 0 0) (0 0 0)
9.080000e+02	1 (0 0.267801 0.151808 0.58039) (23.5 0.970967 1.05445) 183 22879 1 22879 0.556582 5 12071 1 -1 1 4.3e-06 0 (0.352982 0.00846495 0.0313663) 2650 395.557 0 (0 0 0) (0 0 0)
