# Time         currentProc " (coordinates0 coordinates1 coordinates2 coordinates3) (position0 position1 position2) celli tetFacei tetPti facei stepFraction origProc origId active typeId nParticle d dTarget (U0 U1 U2) rho age tTurb (UTurb0 UTurb1 UTurb2) (UCorrect0 UCorrect1 UCorrect2)"
9.110000e+02	5 (0 0.628951 0.246122 0.124927) (23.5 0.89965 1.13587) 1455 32991 1 32991 0.176221 0 2781 1 -1 1 5.3e-05 0 (0.482728 0.00571629 0.176747) 2650 404.176 0 (0 0 0) (0 0 0)
9.130000e+02	5 (0 0.428849 0.168536 0.402615) (23.5 0.912195 1.08863) 1646 32989 1 32989 0.115694 0 3992 1 -1 1 2.12e-05 0 (0.437557 0.00717221 0.178601) 2650 404.116 0 (0 0 0) (0 0 0)
9.150000e+02	5 (0 0.632834 0.189282 0.177884) (23.5 0.674276 1.08565) 1108 32978 2 32978 0.21052 0 4521 1 -1 1 8.9e-06 0 (0.496819 0.0231939 0.163995) 2650 404.211 0 (0 0 0) (0 0 0)
