# Time         currentProc " (coordinates0 coordinates1 coordinates2 coordinates3) (position0 position1 position2) celli tetFacei tetPti facei stepFraction origProc origId active typeId nParticle d dTarget (U0 U1 U2) rho age tTurb (UTurb0 UTurb1 UTurb2) (UCorrect0 UCorrect1 UCorrect2)"
1.038000e+03	7 (0 0.211774 0.300427 0.487799) (23.5 0.966963 0.875358) 241 35534 1 35534 0.3375 0 6097 1 -1 1.00002 5.3e-05 0 (0.153455 0.00397527 -0.0529355) 2650 531.338 0 (0 0 0) (0 0 0)
1.038000e+03	7 (0 0.171702 0.659229 0.16907) (23.5 0.822585 0.474444) 213 35515 2 35515 0.5951 0 10251 1 -1 1 6.4e-06 0 (0.116913 0.00256498 -0.0226183) 2650 526.595 0 (0 0 0) (0 0 0)
1.039000e+03	7 (0 0.154386 0.0731812 0.772433) (23.5 0.881596 0.903641) 539 35380 2 35380 0.864886 0 10265 1 -1 1 6.4e-06 0 (0.171127 0.0103411 -0.0388073) 2650 527.865 0 (0 0 0) (0 0 0)
