# Time         currentProc " (coordinates0 coordinates1 coordinates2 coordinates3) (position0 position1 position2) celli tetFacei tetPti facei stepFraction origProc origId active typeId nParticle d dTarget (U0 U1 U2) rho age tTurb (UTurb0 UTurb1 UTurb2) (UCorrect0 UCorrect1 UCorrect2)"
8.220000e+02	5 (0 0.659261 0.0395152 0.301224) (23.5 0.0820498 1.36022) 52 32960 1 32960 0.816299 0 5996 1 -1 1 4.3e-06 0 (0.530476 0.0170743 0.192479) 2650 309.816 0 (0 0 0) (0 0 0)
8.220000e+02	5 (0 0.177399 0.230178 0.592423) (23.5 0.358439 1.18301) 455 32954 2 32954 0.346002 0 4494 1 -1 1 1.25e-05 0 (0.522294 -0.0363198 0.117303) 2650 312.346 0 (0 0 0) (0 0 0)
