# Time         currentProc " (coordinates0 coordinates1 coordinates2 coordinates3) (position0 position1 position2) celli tetFacei tetPti facei stepFraction origProc origId active typeId nParticle d dTarget (U0 U1 U2) rho age tTurb (UTurb0 UTurb1 UTurb2) (UCorrect0 UCorrect1 UCorrect2)"
8.970000e+02	5 (0 0.602943 0.337238 0.0598184) (23.5 0.835536 1.0661) 1456 32988 1 32988 0.978941 0 5660 1 -1 1 4.3e-06 0 (0.446024 -0.000551429 0.114265) 2650 384.979 0 (0 0 0) (0 0 0)
8.980000e+02	5 (0 0.159147 0.335703 0.50515) (23.5 0.944259 1.02488) 2280 33106 2 33106 0.233499 0 6482 1 -1 1.00001 3.3e-06 0 (0.432355 0.0831493 0.202079) 2650 384.233 0 (0 0 0) (0 0 0)
8.980000e+02	5 (0 0.426433 0.189715 0.383852) (23.5 0.821545 1.37951) 804 33008 2 33008 0.793978 0 2505 1 -1 1 5.3e-05 0 (0.527297 -0.0282558 0.0827399) 2650 391.794 0 (0 0 0) (0 0 0)
8.990000e+02	5 (0 0.462709 0.0879538 0.449337) (23.5 0.952955 1.02896) 2280 33106 1 33106 0.63812 0 5481 1 -1 1 6.4e-06 0 (0.432721 0.0584711 0.21262) 2650 387.638 0 (0 0 0) (0 0 0)
9.000000e+02	5 (0 0.345685 0.127632 0.526683) (23.5 0.969777 1.50636) 947 33109 1 33109 0.403368 0 4965 1 -1 1 8.9e-06 0 (0.502892 -0.000715667 0.0196745) 2650 389.403 0 (0 0 0) (0 0 0)
9.000000e+02	5 (0 0.546704 0.387166 0.0661292) (23.5 0.911118 1.04784) 1846 33054 2 33054 0.556506 0 4305 1 -1 1 1.25e-05 0 (0.450006 0.0225114 0.175422) 2650 390.557 0 (0 0 0) (0 0 0)
