# Time         currentProc " (coordinates0 coordinates1 coordinates2 coordinates3) (position0 position1 position2) celli tetFacei tetPti facei stepFraction origProc origId active typeId nParticle d dTarget (U0 U1 U2) rho age tTurb (UTurb0 UTurb1 UTurb2) (UCorrect0 UCorrect1 UCorrect2)"
9.320000e+02	5 (0 0.165004 0.446458 0.388537) (23.5 0.0264247 1.11643) 118 33079 2 33079 0.313438 0 3234 1 -1 1 3.26e-05 0 (0.441739 0.0134261 0.190957) 2650 424.313 0 (0 0 0) (0 0 0)
9.320000e+02	5 (0 0.147912 0.650041 0.202047) (23.5 0.101229 1.25667) 116 32944 2 32944 0.0742028 0 3994 1 -1 1 2.12e-05 0 (0.536602 0.0230421 0.125535) 2650 423.074 0 (0 0 0) (0 0 0)
9.340000e+02	5 (0 0.228115 0.283428 0.488457) (23.5 0.828115 1.17988) 1274 32990 2 32990 0.0131419 0 5443 1 -1 1 6.4e-06 0 (0.490076 0.0272148 0.124299) 2650 422.013 0 (0 0 0) (0 0 0)
9.340000e+02	5 (0 0.260287 0.310572 0.429141) (23.5 0.829933 1.17768) 1274 32990 2 32990 0.592541 0 4454 1 -1 1 1.25e-05 0 (0.489126 0.0271324 0.125722) 2650 424.593 0 (0 0 0) (0 0 0)
9.350000e+02	5 (0 0.593182 0.395361 0.0114565) (23.5 0.836476 1.34018) 804 33008 1 33008 0.315897 0 3000 1 -1 1 3.26e-05 0 (0.524811 -0.0256367 0.0862474) 2650 427.316 0 (0 0 0) (0 0 0)
