# Time         currentProc " (coordinates0 coordinates1 coordinates2 coordinates3) (position0 position1 position2) celli tetFacei tetPti facei stepFraction origProc origId active typeId nParticle d dTarget (U0 U1 U2) rho age tTurb (UTurb0 UTurb1 UTurb2) (UCorrect0 UCorrect1 UCorrect2)"
1.051000e+03	7 (0 0.757069 0.0717587 0.171173) (23.5 0.505762 1.34773) 472 35407 2 35407 0.913186 0 6124 1 -1 1.00002 5.3e-05 0 (0.273053 0.00950238 -0.00582916) 2650 544.913 0 (0 0 0) (0 0 0)
1.051000e+03	7 (0 0.432918 0.303442 0.263641) (23.5 0.306589 0.854709) 547 35304 1 35304 0.288259 0 11305 1 -1 1.00001 4.3e-06 0 (0.24804 -0.00475513 -0.0211812) 2650 538.288 0 (0 0 0) (0 0 0)
1.052000e+03	7 (0 0.509566 0.12447 0.365964) (23.5 0.883998 0.634931) 586 35358 2 35358 0.766197 0 9024 1 -1 1 1.25e-05 0 (0.0932841 0.000511241 -0.00926288) 2650 542.766 0 (0 0 0) (0 0 0)
1.052000e+03	7 (0 0.592459 0.273777 0.133764) (23.5 0.284484 0.703914) 571 35296 2 35296 0.0382543 0 10048 1 -1 1.00001 8.9e-06 0 (0.224341 0.00335993 -0.0278542) 2650 541.038 0 (0 0 0) (0 0 0)
