# Time         currentProc " (coordinates0 coordinates1 coordinates2 coordinates3) (position0 position1 position2) celli tetFacei tetPti facei stepFraction origProc origId active typeId nParticle d dTarget (U0 U1 U2) rho age tTurb (UTurb0 UTurb1 UTurb2) (UCorrect0 UCorrect1 UCorrect2)"
1.008000e+03	7 (0 0.0859184 0.18964 0.724441) (23.5 0.256726 0.977549) 529 35305 1 35305 0.164783 0 13233 1 -1 1 3.3e-06 0 (0.231836 0.0132741 -0.0335917) 2650 494.165 0 (0 0 0) (0 0 0)
1.009000e+03	7 (0 0.0137054 0.112698 0.873597) (23.5 0.272703 1.4028) 475 35340 2 35340 0.00504347 0 10153 1 -1 1.00001 8.9e-06 0 (0.277317 -0.00486805 -0.00657489) 2650 498.005 0 (0 0 0) (0 0 0)
