# Time         currentProc " (coordinates0 coordinates1 coordinates2 coordinates3) (position0 position1 position2) celli tetFacei tetPti facei stepFraction origProc origId active typeId nParticle d dTarget (U0 U1 U2) rho age tTurb (UTurb0 UTurb1 UTurb2) (UCorrect0 UCorrect1 UCorrect2)"
8.560000e+02	5 (0 0.138091 0.64322 0.218689) (23.5 0.648982 1.28299) 560 32995 1 32995 0.713073 0 5972 1 -1 1 4.3e-06 0 (0.537235 0.00449997 0.074249) 2650 343.713 0 (0 0 0) (0 0 0)
8.570000e+02	5 (0 0.17776 0.17818 0.64406) (23.5 0.277603 1.46419) 113 32973 2 32973 0.268676 0 5261 1 -1 1 6.4e-06 0 (0.541567 0.0262971 0.0201336) 2650 345.269 0 (0 0 0) (0 0 0)
8.590000e+02	5 (0 0.0601792 0.0642504 0.87557) (23.5 0.195396 1.26292) 215 32952 2 32952 0.0307505 0 2040 1 -1 1 7.5e-05 0 (0.524349 -0.00192284 0.0847695) 2650 353.031 0 (0 0 0) (0 0 0)
8.590000e+02	5 (0 0.0279002 0.133127 0.838973) (23.5 0.26612 1.48452) 77 33036 2 33036 0.847949 0 2942 1 -1 1 5.3e-05 0 (0.541318 0.0267701 0.0126468) 2650 352.848 0 (0 0 0) (0 0 0)
8.600000e+02	5 (0 0.235418 0.0253474 0.739234) (23.5 0.641096 1.45869) 359 33003 1 33003 0.319929 0 3492 1 -1 1 3.26e-05 0 (0.547701 -0.00386685 0.0191706) 2650 352.32 0 (0 0 0) (0 0 0)
