# Time         currentProc " (coordinates0 coordinates1 coordinates2 coordinates3) (position0 position1 position2) celli tetFacei tetPti facei stepFraction origProc origId active typeId nParticle d dTarget (U0 U1 U2) rho age tTurb (UTurb0 UTurb1 UTurb2) (UCorrect0 UCorrect1 UCorrect2)"
8.560000e+02	1 (0 0.149053 0.5255 0.325447) (23.5 0.866208 1.14909) 432 22749 1 22749 0.253747 5 12070 1 -1 1 4.3e-06 0 (0.42187 -0.00710225 0.012349) 2650 343.254 0 (0 0 0) (0 0 0)
8.560000e+02	1 (0 0.928981 0.0387599 0.0322594) (23.5 0.503121 1.1309) 428 22741 2 22741 0.492419 5 12270 1 -1 1 4.3e-06 0 (0.425067 -0.0165942 0.0189104) 2650 343.492 0 (0 0 0) (0 0 0)
