# Time         currentProc " (coordinates0 coordinates1 coordinates2 coordinates3) (position0 position1 position2) celli tetFacei tetPti facei stepFraction origProc origId active typeId nParticle d dTarget (U0 U1 U2) rho age tTurb (UTurb0 UTurb1 UTurb2) (UCorrect0 UCorrect1 UCorrect2)"
7.610000e+02	1 (0 0.124402 0.55538 0.320219) (23.5 0.78754 1.53204) 364 22775 1 22775 0.174352 5 11844 1 -1 1 4.3e-06 0 (0.418576 -0.0306577 0.00172363) 2650 248.174 0 (0 0 0) (0 0 0)
7.620000e+02	1 (0 0.0934949 0.168608 0.737897) (23.5 0.997066 1.34696) 201 22784 2 22784 0.806949 5 11780 1 -1 1 4.3e-06 0 (0.228584 -0.00073746 0.0192321) 2650 249.807 0 (0 0 0) (0 0 0)
7.620000e+02	1 (0 0.0101118 0.394592 0.595296) (23.5 0.12423 1.00588) 149 22797 2 22797 0.270288 5 4913 1 -1 1 7.5e-05 0 (0.279971 0.000981249 0.00967409) 2650 256.27 0 (0 0 0) (0 0 0)
7.650000e+02	1 (0 0.569323 0.315396 0.115281) (23.5 0.00201319 1.51288) 116 22871 1 22871 0.949769 5 11299 1 -1 1 4.3e-06 0 (0.240988 -0.000651714 -0.000991929) 2650 252.95 0 (0 0 0) (0 0 0)
