# Time         currentProc " (coordinates0 coordinates1 coordinates2 coordinates3) (position0 position1 position2) celli tetFacei tetPti facei stepFraction origProc origId active typeId nParticle d dTarget (U0 U1 U2) rho age tTurb (UTurb0 UTurb1 UTurb2) (UCorrect0 UCorrect1 UCorrect2)"
8.810000e+02	5 (0 0.307088 0.278789 0.414123) (23.5 0.144569 1.49365) 30 33034 2 33034 0.718271 0 2502 1 -1 1 5.3e-05 0 (0.547293 0.0200313 0.0245516) 2650 374.718 0 (0 0 0) (0 0 0)
8.820000e+02	5 (0 0.381959 0.0221342 0.595907) (23.5 0.7815 1.23816) 951 32987 1 32987 0.315344 0 6041 1 -1 1.00001 3.3e-06 0 (0.532755 -0.00608889 0.0919987) 2650 368.315 0 (0 0 0) (0 0 0)
8.830000e+02	5 (0 0.0866753 0.375392 0.537933) (23.5 0.763751 1.33328) 805 32999 2 32999 0.350816 0 6998 1 -1 1 1.3e-06 0 (0.541316 -0.00290202 0.0621531) 2650 368.351 0 (0 0 0) (0 0 0)
