# Time         currentProc " (coordinates0 coordinates1 coordinates2 coordinates3) (position0 position1 position2) celli tetFacei tetPti facei stepFraction origProc origId active typeId nParticle d dTarget (U0 U1 U2) rho age tTurb (UTurb0 UTurb1 UTurb2) (UCorrect0 UCorrect1 UCorrect2)"
1.212000e+03	7 (0 0.12904 0.425919 0.445041) (23.5 0.45388 1.46431) 460 35346 2 35346 0.41343 0 13673 1 -1 1 1.3e-06 0 (0.18886 0.0873728 0.00521554) 2650 697.413 0 (0 0 0) (0 0 0)
1.212000e+03	7 (0 0.279423 0.2661 0.454477) (23.5 0.172698 1.43504) 456 35338 1 35338 0.360825 0 13256 1 -1 1 3.3e-06 0 (0.226742 0.045849 0.0407217) 2650 698.361 0 (0 0 0) (0 0 0)
1.213000e+03	7 (0 0.672261 0.065082 0.262657) (23.5 0.445771 0.854646) 545 35308 1 35308 0.524551 0 11297 1 -1 1.00001 4.3e-06 0 (0.21854 -0.0457156 -0.0276458) 2650 700.525 0 (0 0 0) (0 0 0)
1.214000e+03	7 (0 0.450624 0.233407 0.315968) (23.5 0.0751456 1.29357) 479 35317 2 35317 0.525197 0 6953 1 -1 1 3.26e-05 0 (0.220354 0.00312352 0.0704245) 2650 706.525 0 (0 0 0) (0 0 0)
