# Time         currentProc " (coordinates0 coordinates1 coordinates2 coordinates3) (position0 position1 position2) celli tetFacei tetPti facei stepFraction origProc origId active typeId nParticle d dTarget (U0 U1 U2) rho age tTurb (UTurb0 UTurb1 UTurb2) (UCorrect0 UCorrect1 UCorrect2)"
7.560000e+02	1 (0 0.377254 0.51057 0.112177) (23.5 0.165874 1.06865) 444 22704 1 22704 0.323633 5 11758 1 -1 1 4.3e-06 0 (0.427217 0.0036075 0.0182147) 2650 243.324 0 (0 0 0) (0 0 0)
7.570000e+02	1 (0 0.133845 0.714062 0.152094) (23.5 0.82024 1.52166) 363 22777 2 22777 0.146186 5 11636 1 -1 1 4.3e-06 0 (0.421162 -0.0195399 0.00369022) 2650 244.146 0 (0 0 0) (0 0 0)
7.570000e+02	1 (0 0.711551 0.0896112 0.198838) (23.5 0.0787113 1.35325) 397 22719 1 22719 0.363885 5 9467 1 -1 1 8.9e-06 0 (0.399597 -0.00136552 -0.00564536) 2650 246.364 0 (0 0 0) (0 0 0)
7.580000e+02	1 (0 0.25137 0.47583 0.272801) (23.5 0.004764 1.49283) 116 22871 1 22871 0.269213 5 9583 1 -1 1 8.9e-06 0 (0.249189 -0.000608292 -0.00196377) 2650 247.269 0 (0 0 0) (0 0 0)
7.580000e+02	1 (0 0.337766 0.223934 0.4383) (23.5 0.632923 1.43885) 381 22762 1 22762 0.699757 5 9440 1 -1 1 8.9e-06 0 (0.418189 -0.0261794 0.00727923) 2650 247.7 0 (0 0 0) (0 0 0)
7.590000e+02	1 (0 0.079294 0.525013 0.395693) (23.5 0.334233 1.15333) 425 22710 1 22710 0.705703 5 9504 1 -1 1 8.9e-06 0 (0.421043 0.0145688 0.0083065) 2650 248.706 0 (0 0 0) (0 0 0)
