# Time         currentProc " (coordinates0 coordinates1 coordinates2 coordinates3) (position0 position1 position2) celli tetFacei tetPti facei stepFraction origProc origId active typeId nParticle d dTarget (U0 U1 U2) rho age tTurb (UTurb0 UTurb1 UTurb2) (UCorrect0 UCorrect1 UCorrect2)"
7.060000e+02	1 (0 0.331618 0.526018 0.142365) (23.5 0.633483 1.34973) 390 22760 1 22760 0.764268 5 4291 1 -1 1 7.5e-05 0 (0.424618 -0.00998303 0.0132281) 2650 200.764 0 (0 0 0) (0 0 0)
7.060000e+02	1 (0 0.672101 0.0642351 0.263664) (23.5 0.585549 1.3627) 390 22760 2 22760 0.817714 5 11635 1 -1 1 4.3e-06 0 (0.423524 -0.0136623 0.0150045) 2650 193.818 0 (0 0 0) (0 0 0)
7.080000e+02	1 (0 0.0692059 0.543084 0.38771) (23.5 0.0162485 1.08618) 134 22794 1 22794 0.620946 5 11452 1 -1 1 4.3e-06 0 (0.324408 0.00249242 0.00467451) 2650 195.621 0 (0 0 0) (0 0 0)
7.080000e+02	1 (0 0.549813 0.202288 0.2479) (23.5 0.279383 1.43963) 377 22734 2 22734 0.963316 5 11665 1 -1 1 4.3e-06 0 (0.416876 -0.0293421 -0.00310842) 2650 195.963 0 (0 0 0) (0 0 0)
7.090000e+02	1 (0 0.924559 0.0312394 0.0442021) (23.5 0.665328 1.4127) 382 22765 1 22765 0.0779279 5 11822 1 -1 1 4.3e-06 0 (0.423375 -0.0225156 0.0145675) 2650 196.078 0 (0 0 0) (0 0 0)
