# Time         currentProc " (coordinates0 coordinates1 coordinates2 coordinates3) (position0 position1 position2) celli tetFacei tetPti facei stepFraction origProc origId active typeId nParticle d dTarget (U0 U1 U2) rho age tTurb (UTurb0 UTurb1 UTurb2) (UCorrect0 UCorrect1 UCorrect2)"
7.270000e+02	1 (0 0.588182 0.0600736 0.351744) (23.5 0.533104 1.43309) 380 22761 1 22761 0.871947 5 11892 1 -1 1 4.3e-06 0 (0.4255 -0.0136238 -0.00258231) 2650 214.872 0 (0 0 0) (0 0 0)
7.280000e+02	1 (0 0.0166311 0.769894 0.213475) (23.5 0.812565 1.52527) 363 22777 2 22777 0.750151 5 11387 1 -1 1 4.3e-06 0 (0.409219 -0.0241395 0.00174547) 2650 215.75 0 (0 0 0) (0 0 0)
7.280000e+02	1 (0 0.474794 0.436353 0.088853) (23.5 0.729555 1.50967) 365 22776 1 22776 0.632399 5 9736 1 -1 1 8.9e-06 0 (0.416402 -0.0251947 0.00151938) 2650 217.632 0 (0 0 0) (0 0 0)
7.290000e+02	1 (0 0.390021 0.164147 0.445831) (23.5 0.99715 1.29576) 200 22778 2 22778 0.864649 5 9274 1 -1 1 8.9e-06 0 (0.229519 2.70206e-05 0.02085) 2650 218.865 0 (0 0 0) (0 0 0)
