# Time         currentProc " (coordinates0 coordinates1 coordinates2 coordinates3) (position0 position1 position2) celli tetFacei tetPti facei stepFraction origProc origId active typeId nParticle d dTarget (U0 U1 U2) rho age tTurb (UTurb0 UTurb1 UTurb2) (UCorrect0 UCorrect1 UCorrect2)"
1.186000e+03	7 (0 0.117547 0.603869 0.278584) (23.5 0.255605 1.42314) 457 35341 1 35341 0.178206 0 6304 1 -1 1 3.26e-05 0 (0.14552 0.038417 0.013614) 2650 678.178 0 (0 0 0) (0 0 0)
1.187000e+03	7 (0 0.047617 0.00116671 0.951216) (23.5 0.740056 0.46178) 212 35512 2 35512 0.740542 0 3239 1 -1 1 0.00011 0 (0.0373738 -0.0103237 -0.00926814) 2650 682.741 0 (0 0 0) (0 0 0)
1.187000e+03	7 (0 0.236499 0.687331 0.0761697) (23.5 0.174484 1.09148) 504 35314 1 35314 0.804446 0 7780 1 -1 1 2.12e-05 0 (0.194713 0.00492705 0.0376236) 2650 678.804 0 (0 0 0) (0 0 0)
1.189000e+03	7 (0 0.815664 0.0801201 0.104216) (23.5 0.586684 1.41661) 462 35410 2 35410 0.162467 0 8172 1 -1 1 2.12e-05 0 (0.159912 0.0605469 -0.0109684) 2650 680.162 0 (0 0 0) (0 0 0)
