# Time         currentProc " (coordinates0 coordinates1 coordinates2 coordinates3) (position0 position1 position2) celli tetFacei tetPti facei stepFraction origProc origId active typeId nParticle d dTarget (U0 U1 U2) rho age tTurb (UTurb0 UTurb1 UTurb2) (UCorrect0 UCorrect1 UCorrect2)"
7.360000e+02	1 (0 0.224966 0.118744 0.65629) (23.5 0.562316 1.38568) 391 22759 1 22759 0.594485 5 10211 1 -1 1 8.9e-06 0 (0.430378 0.00656643 -0.00056847) 2650 225.594 0 (0 0 0) (0 0 0)
7.390000e+02	1 (0 0.770348 0.0257463 0.203906) (23.5 0.999551 1.11149) 189 22848 2 22848 0.388207 5 9242 1 -1 1 8.9e-06 0 (0.202395 0.000248483 0.0131611) 2650 228.388 0 (0 0 0) (0 0 0)
